,anion_type,e_above_hull,mp_id,pretty_formula,rms,spacegroup.symbol
3174,none,0.037231797,mp-764634,Li2CoSiO4,none,C2/m
3175,none,0.037244619,mp-762644,LiFeSiO4,none,P6_422
3176,none,0.037266494,mp-540188,LiMnP2O7,none,P1
3177,fcc,0.03732001,mp-762609,Li2CrCo3O8,0.076,C2
3178,none,0.037335999,mp-777937,Li3Mn4(BO3)4,none,P1
3179,none,0.037336171,mp-778867,Li3Mn4(BO3)4,none,P1
3180,none,0.037337349,mp-1177806,Li2VCO5,none,P1
3181,hcp,0.037341413,mp-1177418,Li4Fe(WO4)3,0.088,P2
3182,none,0.037354714,mp-861552,Li3Mn(PO4)2,none,P-1
3183,none,0.037354847,mp-540073,LiFe(PO3)4,none,C2/c
3184,none,0.037368157,mp-767929,Li3VSi2O7,none,P2_1
3185,none,0.037368945,mp-762388,Li2(NiO2)3,none,Cc
3186,fcc,0.037377072,mp-762450,Li6(NiO2)11,0.088,P1
3187,none,0.037387306,mp-759720,LiCuO2,none,P-1
3188,fcc,0.03739099,mp-1175272,Li7Mn4CoO12,0.045,P2
3189,none,0.037391654,mp-1177248,Li5V3P8O29,none,P1
3190,none,0.037407172,mp-765372,Li5V3P8O29,none,C2/c
3191,none,0.037410854,mp-775467,Li5MnO4,none,Aea2
3192,none,0.037414094,mp-763674,K8Li3(FeO4)4,none,P1
3193,none,0.037420363,mp-1177472,Li4Co(BO3)2,none,Pnnm
3194,none,0.03742067,mp-761611,Li3V(Si2O5)3,none,Cmce
3195,none,0.037435833,mp-1177250,Li5V3P8O29,none,P1
3196,none,0.037446725,mp-1177550,Li4V3P8O29,none,Cc
3197,none,0.037450586,mp-780186,Li9Mn10O20,none,P1
3198,none,0.037474631,mp-31953,Li2MnP2O7,none,P1
3199,hcp,0.03747814,mp-690493,LiMoO2,0.006,P2_1/c
3200,none,0.037482107,mp-777896,Li2V3NiO8,none,P31c
3201,none,0.0374832,mp-1177702,Li3Fe2(SiO4)2,none,P2_1/c
3202,none,0.03749147,mp-753848,Li(CuO)3,none,P4/nmm
3203,none,0.037562576,mp-770270,LiCoBO3,none,P1
3204,none,0.037564818,mp-763734,LiFeSiO4,none,P6_422
3205,hcp,0.037577135,mp-686160,Li17Nb20O60,0.099,P1
3206,none,0.037599311,mp-772429,Li2V(BO2)5,none,P2_1/c
3207,none,0.037609814,mp-770739,LiTiFeO4,none,Pnma
3208,none,0.037611725,mp-780335,Li3Mn4(BO3)4,none,P-1
3209,hcp,0.037616505,mp-762407,Li6Mn5O10,0.111,Cm
3210,none,0.03761914,mp-31961,LiMn2(PO3)5,none,Pc
3211,none,0.037623643,mp-761869,Sr3Li3La5O12,none,Pm
3212,fcc,0.03762684,mp-1175217,Li7Mn4CoO12,0.05,P1
3213,hcp,0.037642827,mp-1222641,Li3Nb4CuO12,0.082,P1
3214,none,0.037646276,mp-1174330,Li4Mn3O7,none,P-1
3215,none,0.03768483,mp-770325,LiVB2O5,none,P2_1/c
3216,none,0.037692891,mp-1177147,Li5V3P8O29,none,P1
3217,none,0.037732886,mp-540038,LiMo(PO4)2,none,P2_1/c
3218,hcp,0.037754863,mp-861603,Li2SiNiO4,0.088,Pna2_1
3219,fcc,0.037759094,mp-1175222,Li7Mn4CoO12,0.069,P1
3220,none,0.03776195,mp-765169,Li5V3P8O29,none,P1
3221,fcc,0.037792023,mp-762165,Li3(NiO2)5,0.083,P-1
3222,none,0.037793235,mp-761475,Li2Fe2Si5O13,none,P-1
3223,fcc,0.037794073,mp-770070,Li3TiCr3O8,0.058,R-3m
3224,fcc,0.037821041,mp-778023,LiMnCo3O8,0.103,R-3m
3225,none,0.037822286,mp-765045,Li5V3P8O29,none,P1
3226,none,0.037831315,mp-697807,LiMn4P7O24,none,P-1
3227,fcc,0.037831773,mp-762546,Li4Ti2V3O10,0.063,P-1
3228,none,0.037836419,mp-762170,Li2NiP2O7,none,P2_1/c
3229,none,0.03783743,mp-763526,LiP(WO4)2,none,P2_1
3230,hcp,0.037842987,mp-780046,Li8WO6,0.054,R-3
3231,fcc,0.037845081,mp-1174299,Li4Mn3O7,0.063,C2/m
3232,fcc,0.037850726,mp-1174385,Li5Mn2CoO8,0.045,P2
3233,none,0.037866448,mp-772430,Li2AlFeO4,none,P2_1/c
3234,fcc,0.037872421,mp-762758,Li4Ti2Fe3O10,0.067,P-1
3235,none,0.037874591,mp-767614,Li3Mn4(PO4)6,none,P1
3236,none,0.037895569,mp-31548,LiCoP2O7,none,P1
3237,none,0.0378984,mp-769703,LiCrBO3,none,P-6
3238,fcc,0.037930637,mp-861850,Li3CuNi3O8,0.082,P-1
3239,fcc,0.037971343,mp-770029,LiMn2Fe3O8,0.07,Imm2
3240,fcc,0.037974924,mp-765971,Li5Mn5(CoO6)2,0.061,C2
3241,none,0.037981265,mp-1180529,LiMnPO5,none,P-1
3242,none,0.037991988,mp-32017,Li3Mn3(PO4)4,none,P2_1
3243,none,0.038036757,mp-559767,LiAsO3,none,C2/c
3244,none,0.038036913,mp-705334,Li2V(PO3)5,none,Pc
3245,none,0.038037563,mp-763828,Li2Co(CO3)2,none,P2_1/c
3246,none,0.038041796,mp-769898,Li2Ni3SnO8,none,P6_3mc
3247,none,0.038044651,mp-504315,LiV6P7O24,none,P2_1/m
3248,none,0.038072041,mp-757158,LiTa3O8,none,Pmma
3249,none,0.038074598,mp-766986,Li2Mn(CO3)2,none,Fdd2
3250,none,0.038106107,mp-1177164,Li4VAs2O9,none,P4/ncc
3251,fcc,0.038166143,mp-1175186,Li7Mn4CoO12,0.046,P1
3252,fcc,0.038186771,mp-762011,LiCrCoO4,0.076,Imma
3253,fcc,0.038195354,mp-764772,LiVO2,0.044,P-1
3254,fcc,0.038207505,mp-763181,LiCrCo3O8,0.097,R-3m
3255,none,0.038216852,mp-769696,Li2FeBO4,none,C222_1
3256,fcc,0.038225979,mp-1178061,Li2Cr3CoO8,0.072,P1
3257,fcc,0.038226216,mp-775047,Li2VCrO4,0.064,I-4m2
3258,none,0.03822663,mp-777944,Li3Mn4(BO3)4,none,P1
3259,fcc,0.038242887,mp-763760,Li3TiNi3O8,0.068,C2/m
3260,none,0.038247694,mp-766629,Li5V3P8O29,none,P1
3261,none,0.038254222,mp-761642,Li2Cr3Si3O10,none,C2/c
3262,none,0.038255968,mp-504383,Li7Mo4P9O32,none,P-42_1c
3263,none,0.038269146,mp-767832,LiFe2(PO4)2,none,Pca2_1
3264,fcc,0.038289244,mp-1222649,Li2MgTi3O8,0.078,R3m
3265,none,0.03829457,mp-762645,LiFeSiO4,none,Pc
3266,none,0.038333139,mp-765613,Li(CuO)3,none,I4/mmm
3267,none,0.038338097,mp-1177638,Li3Mn4(BO3)4,none,P-1
3268,none,0.038346756,mp-540026,Li2FeP2O7,none,C2/m
3269,none,0.038348786,mp-776713,Li3Mn4(BO3)4,none,P1
3270,none,0.038383794,mp-619100,LiEuTiO4,none,Pbcm
3271,none,0.038388513,mp-697796,Li2Cr5(PO4)4,none,P-1
3272,none,0.038393848,mp-773942,Li3Fe2(PO4)3,none,C2
3273,none,0.038394795,mp-752891,LiTi3O6,none,Fddd
3274,none,0.038398626,mp-853271,Li5Mn2(PO4)3,none,P2_1/c
3275,none,0.038405655,mp-32530,Li3V2(PO4)3,none,P2/c
3276,none,0.038415383,mp-1174204,Li4Mn3CoO8,none,P-1
3277,none,0.038419671,mp-779299,Li3Mn4(BO3)4,none,Pc
3278,none,0.038429029,mp-1177050,Li5V3P8O29,none,P1
3279,none,0.038477498,mp-767070,LiLa5Ti8O24,none,P1
3280,fcc,0.038492576,mp-771927,Li7Ni5O12,0.068,C2
3281,none,0.038501786,mp-673101,LiSn4(PO4)3,none,P6_3
3282,none,0.038502735,mp-1174169,Li4Mn3CoO8,none,C2/m
3283,none,0.038508096,mp-767990,LiV(CO3)2,none,C2/c
3284,none,0.038508149,mp-772368,Li2TiFe3O8,none,P6_3mc
3285,none,0.038527508,mp-849353,Li3Mn4(BO3)4,none,P-1
3286,none,0.038529657,mp-765490,LiV24O58,none,P1
3287,none,0.038554249,mp-775012,Li3Co2(PO4)3,none,R-3
3288,none,0.038576395,mp-782650,LiMnP2O7,none,P2_1/c
3289,none,0.038583993,mp-853214,Li3Mn4(BO3)4,none,P-1
3290,none,0.038595782,mp-753845,LiCuO2,none,P1
3291,none,0.038630337,mp-777465,Li3P3(WO6)2,none,R-3
3292,fcc,0.038632439,mp-1174885,Li7Mn4CoO12,0.063,P1
3293,fcc,0.038641429,mp-769502,Li4Nb2Fe3O10,0.078,P-1
3294,none,0.038647824,mp-850072,Li3Mn4(BO3)4,none,P-1
3295,none,0.038653592,mp-778301,Li4V3Cr5O16,none,Cm
3296,none,0.038658892,mp-756951,LiSbO3,none,C2/m
3297,none,0.03866228,mp-762897,Li2V(PO4)2,none,P2_1/c
3298,none,0.038682745,mp-690452,LiMn4(PO4)3,none,P-1
3299,none,0.03869357,mp-775605,Li2Ni2SnO6,none,Cmce
3300,none,0.03870345,mp-865197,Li3V3P8O29,none,Cc
3301,none,0.038713833,mp-1174238,Li4Mn3CoO8,none,P-1
3302,none,0.038737286,mp-762674,LiFe4(PO4)3,none,P-1
3303,fcc,0.038748931,mp-706830,Li7Mn11O24,0.079,C2/m
3304,none,0.038760677,mp-504389,Li7Cr4P9O32,none,P-42_1c
3305,none,0.038767845,mp-772369,Li2Mn3WO8,none,P6_3mc
3306,none,0.038796731,mp-780136,Li3Mn4(BO3)4,none,P1
3307,none,0.038812187,mp-765080,Li5V3P8O29,none,P1
3308,none,0.038828086,mp-585383,Li2V(PO4)2,none,Cc
3309,none,0.03884969,mp-769666,Li5Mn6O12,none,P-1
3310,none,0.038858744,mp-32507,LiV(PO3)4,none,P2_1
3311,none,0.038858822,mp-1174373,Li4Mn3O7,none,C2/m
3312,none,0.038864586,mp-1177017,Li6Fe3P8O29,none,Cc
3313,hcp,0.038878198,mp-686041,Li7Nb8O24,0.096,P1
3314,none,0.038878396,mp-762887,LiFe4(PO4)3,none,Pm
3315,fcc,0.03888744,mp-762513,Li7(NiO2)12,0.079,C2
3316,none,0.038900278,mp-763474,LiPWO5,none,C2/c
3317,none,0.038904579,mp-1174187,Li4Mn3CoO8,none,P2/m
3318,none,0.038907952,mp-767916,Li2SiNiO4,none,P2_1/c
3319,none,0.038920793,mp-753769,Sr3Li3La5O12,none,Pm
3320,none,0.0389567,mp-767985,Li2NiP2O7,none,P-1
3321,fcc,0.038970057,mp-1040012,LiMg30SbO32,0,P4/mmm
3322,none,0.038982214,mp-772122,Li3V4CuO12,none,C2
3323,none,0.039057697,mp-853209,Li3Mn4(BO3)4,none,P1
3324,none,0.039075323,mp-673092,Li4Sn(PO3)6,none,P1
3325,fcc,0.039097008,mp-770510,Li5MnO4,0.096,Pbca
3326,none,0.039098401,mp-1177902,Li2MnP2O7,none,P-1
3327,none,0.039112028,mp-771278,Na8Li9(FeO4)4,none,P1
3328,none,0.039117207,mp-770786,Li3Ni(BO3)2,none,P2_1/c
3329,none,0.039134716,mp-774369,Li3V12O29,none,Cm
3330,fcc,0.039138026,mp-1175347,Li7Mn5O12,0.053,C2/m
3331,none,0.039162467,mp-770577,LiAlFeO3,none,P-1
3332,fcc,0.039186608,mp-774275,Li3Co3(Ge3O8)2,0.09,P2_1
3333,none,0.039217477,mp-761841,Li2SnP2O7,none,P2_1/c
3334,none,0.039231098,mp-25943,Li2CuP2O7,none,P2_1/c
3335,none,0.039243341,mp-849373,Li3Mn4(BO3)4,none,P-1
3336,none,0.039272895,mp-763379,LiV(PO3)3,none,Pbcm
3337,none,0.039304066,mp-31594,LiCoPO4,none,Pc
3338,fcc,0.039304295,mp-1175239,Li7Mn4CoO12,0.064,P1
3339,none,0.039312915,mp-540433,Li2Fe3(P2O7)2,none,P-1
3340,none,0.039313395,mp-775349,Li2Cr(Si2O5)3,none,P-62c
3341,none,0.039326206,mp-763452,LiP3W2O13,none,P2_1/c
3342,hcp,0.039333023,mp-772233,Li4VGa3O8,0.006,P1
3343,none,0.039353891,mp-25871,Li3Cu2P5O16,none,P2/c
3344,none,0.039370104,mp-540423,LiCr(PO3)4,none,P2_1
3345,none,0.039374998,mp-777038,LiMnPO4,none,Pnma
3346,none,0.03938027,mp-761610,LiMnPO5,none,P-1
3347,fcc,0.039384314,mp-705910,Li15(NiO2)14,0.064,Cm
3348,fcc,0.039400806,mp-773253,Li2MnSnO4,0.027,P2/m
3349,none,0.039409283,mp-1174214,Li4Mn3CoO8,none,P-1
3350,none,0.039411729,mp-1222546,LiCuSbO4,none,P2_1
3351,none,0.03942758,mp-1211286,Li3Y2(BO3)3,none,P2_1/c
3352,fcc,0.039439919,mp-780809,Li3Cu(NiO3)2,0.046,C2/m
3353,fcc,0.039465062,mp-772345,Li4Mn3O8,0.083,R-3m
3354,fcc,0.039482161,mp-1174165,Li4Mn3CoO8,0,P2/m
3355,none,0.039497878,mp-1177554,Li4Cr2(PO4)3,none,P2_1/c
3356,fcc,0.039505273,mp-771552,Li5Ti2Mn5O12,0.058,C2
3357,fcc,0.039511105,mp-1174185,Li4Mn3CoO8,0.068,C2/m
3358,fcc,0.039528066,mp-1173894,Li2CoO3,0.064,C2/m
3359,none,0.039602723,mp-781504,Li2CrP2O7,none,P2_1/c
3360,fcc,0.039617892,mp-1040035,LiMg30SbO32,0,P4/mmm
3361,none,0.039651266,mp-853850,Li4V3P8O29,none,Cc
3362,none,0.039691461,mp-1177652,Li3Fe5(PO4)6,none,C2/c
3363,fcc,0.039692289,mp-1175362,Li7Mn5O12,0.064,C2/m
3364,none,0.03969492,mp-31931,LiMn4(PO4)3,none,R3c
3365,none,0.039696136,mp-849347,Li3Mn4(BO3)4,none,P-1
3366,none,0.039698535,mp-684509,LiSn(PO3)3,none,P2_12_12_1
3367,hcp,0.039700859,mp-1177243,Li4TiFe3O8,0.012,P1
3368,none,0.039705522,mp-868126,Li3Mn(NiO3)2,none,C2/c
3369,none,0.039710791,mp-26409,LiTi(PO3)4,none,C2/c
3370,fcc,0.039734305,mp-1100509,Li9Mn7O16,0,P-1
3371,none,0.03974797,mp-761358,Li4FeO3,none,Cc
3372,none,0.039758676,mp-1174136,Li4Mn3CoO8,none,C2/m
3373,fcc,0.039762802,mp-775263,Li6CoNi9O20,0.089,C2/m
3374,fcc,0.039786499,mp-1175326,Li7Mn5O12,0.05,P-1
3375,fcc,0.039829337,mp-1173977,Li3Co2O5,0.066,P-1
3376,none,0.039830766,mp-850252,Li5Fe8(BO3)8,none,P1
3377,fcc,0.039847814,mp-690435,Li7Mn11O24,0.088,C2
3378,none,0.0398555,mp-853175,Li4V2Si4O13,none,Pna2_1
3379,none,0.039864614,mp-1174283,Li4Mn3O7,none,P-1
3380,none,0.039867946,mp-770175,Li2Mn3FeO8,none,P6_3mc
3381,fcc,0.039890353,mp-762589,Li4Mn5(NiO6)2,0.069,P2_1
3382,hcp,0.039900499,mp-766548,Li4Ti11O24,0.116,P1
3383,fcc,0.039904109,mp-769527,Li2MgCo13O28,0.104,P-1
3384,none,0.039908866,mp-773964,Ba10LiW7O30,none,P3m1
3385,none,0.039932788,mp-850449,Li5Fe8(BO3)8,none,P1
3386,fcc,0.039947542,mp-771942,Li3Mn5O8,0,R-3m
3387,none,0.039948664,mp-777707,Li5Fe8(BO3)8,none,P1
3388,none,0.039959586,mp-31846,LiFePO4,none,Pc
3389,none,0.039963334,mp-540421,Li2MnP2O7,none,P-1
3390,none,0.039965894,mp-763539,LiP3W2O13,none,P2_1/c
3391,none,0.039975327,mp-775458,LiV18O44,none,Pm
3392,none,0.039977673,mp-769715,LiVBO4,none,Pnma
3393,none,0.039981467,mp-865189,Li3V3P8O29,none,P1
3394,none,0.039992991,mp-1176606,LiNi(PO3)4,none,C2/c
3395,none,0.040001364,mp-1176584,LiV(PO3)3,none,P-1
3396,fcc,0.040006944,mp-774135,LiFeNiO4,0.067,Imma
3397,none,0.040013804,mp-777417,Li4Ti5Mn3O16,none,Cm
3398,none,0.040015629,mp-775523,Li3Fe2(PO4)3,none,C2
3399,none,0.040033177,mp-761776,LiMn(SiO3)2,none,Pbca
3400,none,0.040056905,mp-504397,LiMn4(PO4)3,none,Pnnm
3401,fcc,0.040058123,mp-770414,LiAlVO4,0,P4_322
3402,none,0.040061042,mp-1175245,Li7Mn4CoO12,none,P1
3403,none,0.040062993,mp-1101503,LiV(PO3)4,none,P2_1
3404,none,0.040070398,mp-849258,Li3Mn4(BO3)4,none,P-1
3405,none,0.040086082,mp-762643,LiFeSiO4,none,Cmcm
3406,none,0.040101841,mp-769763,Li5Cu(HO2)2,none,Pnma
3407,none,0.04011052,mp-859137,Li2Mn2Si2O7,none,Ama2
3408,fcc,0.040121241,mp-761730,LiCo3CuO8,0.101,C2/m
3409,none,0.040126,mp-773691,LiFe(SiO3)2,none,P1
3410,none,0.04014645,mp-1100502,Li9Mn7O16,none,P-1
3411,none,0.040164848,mp-706504,Li2W2O7,none,P-1
3412,hcp,0.040165678,mp-853204,Li2MnSiO4,0.149,P2_1/c
3413,fcc,0.040168645,mp-849420,Li2Mn3CuO8,0.08,R3m
3414,none,0.040185228,mp-1098010,Li2Eu5O8,none,C2/m
3415,none,0.040204763,mp-1191914,LiSb(MoO4)2,none,C2/c
3416,fcc,0.040215164,mp-754204,LiGdO2,0.092,I4_1/amd
3417,hcp,0.040216329,mp-767648,Li2SiNiO4,0.144,Pna2_1
3418,fcc,0.040224862,mp-34461,Li7Mn11O24,0.089,P-1
3419,none,0.040235282,mp-767682,Li4Fe3(BO3)4,none,Pc
3420,none,0.040246861,mp-757419,LiTi(SiO3)2,none,Pbca
3421,fcc,0.040248203,mp-771896,Li5Mn8Fe11O32,0.076,Cm
3422,fcc,0.040287187,mp-771711,Li4V3CoO8,0,C2/m
3423,none,0.040300618,mp-767831,LiFe2(PO4)2,none,Pca2_1
3424,none,0.04031412,mp-773545,Li4Ti3Mn5O16,none,Cm
3425,none,0.040340486,mp-863866,Li3V3P8O29,none,Cc
3426,none,0.040360149,mp-26795,LiCu5P3O13,none,P-1
3427,none,0.040362573,mp-775345,LiTi2VO6,none,P2_1/c
3428,fcc,0.040364167,mp-763686,Li6TiNi7O16,0.078,P1
3429,none,0.040370675,mp-540520,Li7Fe4P9O32,none,P-42_1c
3430,hcp,0.040403595,mp-769852,Li3CoO3,0.099,P-1
3431,none,0.040403725,mp-761778,Li2V2Si5O13,none,P-1
3432,fcc,0.040408382,mp-1177815,Li2V3SnO8,0.05,R-3m
3433,none,0.040412773,mp-770402,Li3B2SbO6,none,P-1
3434,fcc,0.040414931,mp-775493,Li2Fe3WO8,0.064,C2
3435,none,0.040424954,mp-767064,Li3Co2(CO3)4,none,P1
3436,fcc,0.040433763,mp-771618,Li5V3Cr2O10,0.049,P-1
3437,fcc,0.040448038,mp-1100500,Li9Mn7O16,0.044,C2/m
3438,none,0.040455936,mp-704183,LiMo2PO8,none,P2_1
3439,none,0.040471669,mp-762490,LiFeP2O7,none,P2_1/c
3440,none,0.040477421,mp-31873,LiFe(PO3)4,none,P2_12_12_1
3441,none,0.040485327,mp-776170,LiTi2O4,none,P6_3mc
3442,none,0.040489673,mp-32106,LiMoPO5,none,Pnma
3443,fcc,0.040498002,mp-762454,LiCrO2,0.067,I4_1/amd
3444,none,0.040513189,mp-762759,LiMn(PO3)3,none,P-1
3445,fcc,0.040584914,mp-1185486,LiTi2O4,0.072,P2/m
3446,none,0.040605598,mp-762839,LiFe4(PO4)3,none,Pnma
3447,fcc,0.040606685,mp-1175194,Li7Mn4CoO12,0.045,P1
3448,none,0.040617313,mp-26897,LiSn(PO3)3,none,P-6c2
3449,none,0.04065398,mp-1176562,LiV2(PO4)2,none,Pmc2_1
3450,none,0.040680365,mp-764125,Li4Mn2(PO4)3,none,P-1
3451,fcc,0.04068413,mp-1100491,Li9Mn7O16,0,C2/m
3452,fcc,0.040686103,mp-1040143,LiCeMg30O32,0,P4/mmm
3453,hcp,0.040688954,mp-777152,Li3Co2(GeO4)2,0.074,P1
3454,none,0.040692318,mp-776720,Li3Mn4(BO3)4,none,P1
3455,fcc,0.040705548,mp-772021,LiMnO2,0.069,P-1
3456,none,0.040720401,mp-778277,Li2Ti3FeO8,none,P6_3mc
3457,none,0.040743255,mp-766667,Li4V3P8O29,none,Cc
3458,fcc,0.040746449,mp-1175246,Li7Mn4CoO12,0.061,P1
3459,none,0.040753041,mp-1177634,Li3V3P8O29,none,P1
3460,none,0.040774194,mp-764548,Li5Fe8(BO3)8,none,P1
3461,none,0.040790733,mp-997543,Li3FeSi2O7,none,P6_3
3462,none,0.040804737,mp-761849,Na5Li3Ti5O14,none,P1
3463,fcc,0.040807504,mp-777653,Li2Cr3FeO8,0.074,P1
3464,none,0.040826762,mp-850018,Li3Mn4(BO3)4,none,P-1
3465,none,0.04084592,mp-849492,Li5Fe4(P2O7)4,none,P1
3466,none,0.040858059,mp-767565,LiVCO4,none,P2_1/c
3467,none,0.040862604,mp-1176688,LiFeSiO4,none,Pbcn
3468,none,0.040871093,mp-762949,Li14Cr9(P2O7)8,none,P-1
3469,none,0.040872677,mp-1174326,Li4Mn3O7,none,P-1
3470,fcc,0.040879793,mp-770958,Li4NbFe3O8,0.047,C2/m
3471,none,0.040941457,mp-697664,LiCr4(PO4)3,none,C2/c
3472,fcc,0.040948563,mp-1174770,Li6Mn3CoO10,0.067,P1
3473,none,0.040952956,mp-780194,Li3Mn4(BO3)4,none,P-1
3474,none,0.040970862,mp-1177489,Li3V3P8O29,none,C2
3475,none,0.040996767,mp-780105,Li3Mn4(BO3)4,none,P1
3476,none,0.04100022,mp-32525,Li2V(PO4)2,none,P2_1/c
3477,none,0.04100471,mp-504387,Li6Mn5(P2O7)4,none,P-1
3478,none,0.041024489,mp-764619,Li5Fe8(BO3)8,none,P1
3479,none,0.041035286,mp-1174316,Li4Mn3O7,none,P-1
3480,none,0.041041481,mp-1174203,Li4Mn3CoO8,none,C2/m
3481,none,0.041051548,mp-769711,Li3Cr3CoO8,none,P-1
3482,none,0.041061831,mp-767492,Li2V2Si2O9,none,Pbcn
3483,fcc,0.041079897,mp-766809,Li3Cr2CoO6,0,C2/m
3484,fcc,0.041081394,mp-1173880,Li2CoO3,0.069,C2/m
3485,none,0.041083283,mp-542874,LiAl(SiO3)2,none,P2_1/c
3486,none,0.041084595,mp-767228,LiFe2(PO4)2,none,C2
3487,fcc,0.041108253,mp-772249,Li4Fe3WO8,0.074,R-3m
3488,fcc,0.041112281,mp-773719,LiFe23O32,0,R-3m
3489,none,0.041112948,mp-556675,Rb2Li14Tb3O14,none,Immm
3490,none,0.041121057,mp-764654,Li5Fe8(BO3)8,none,P1
3491,fcc,0.041129661,mp-771780,Li3Zn(Fe5O8)4,0,Cm
3492,none,0.041170515,mp-778041,Li9Mn7(PO4)12,none,P1
3493,fcc,0.041184869,mp-764865,Li8FeCo9O20,0.071,P-1
3494,none,0.041188248,mp-772241,Li3MnAl2O6,none,P-1
3495,fcc,0.041193366,mp-586092,Li3Fe5O8,0,Cmcm
3496,fcc,0.041216051,mp-780020,Li3Cr3FeO8,0.061,C2/m
3497,none,0.041232289,mp-764854,Li5Fe8(BO3)8,none,P1
3498,fcc,0.041236018,mp-770981,Li2VGaO4,0.046,P-1
3499,none,0.041253927,mp-766664,LiFeSiO4,none,Pna2_1
3500,fcc,0.041262994,mp-773325,Li2V3O8,0.109,P2_12_12_1
3501,none,0.041263895,mp-762876,Li3Cr(Si2O5)3,none,Cmce
3502,none,0.041264801,mp-775294,LiCr3P4O15,none,Pc
3503,none,0.041272676,mp-761583,Li3V(Si2O5)3,none,Pnma
3504,fcc,0.041314228,mp-767980,Li3Fe3NiO8,0.067,C2/m
3505,none,0.041315323,mp-767360,LiMn(SiO3)2,none,C2/c
3506,none,0.041327171,mp-761797,Li6Mn15O32,none,P-1
3507,none,0.041352651,mp-540045,Li2Mn(PO3)4,none,P4/nbm
3508,fcc,0.041370205,mp-1175323,Li7Mn5O12,0.069,P-1
3509,none,0.041376673,mp-1175318,Li7Mn5O12,none,P-1
3510,fcc,0.041380041,mp-1177850,Li2TiCoO4,0.036,Imma
3511,hcp,0.04139367,mp-771984,Li3Nb4FeO12,0.081,P1
3512,fcc,0.041411749,mp-1173889,Li2CoO3,0.064,C2/m
3513,none,0.041436962,mp-865196,Li3V3P8O29,none,P1
3514,none,0.041440139,mp-773179,Li2TiCo3O8,none,Cc
3515,fcc,0.041494199,mp-1175359,Li7Mn5O12,0.072,C2/m
3516,none,0.041501132,mp-504399,Li7V4P9O32,none,P-42_1c
3517,none,0.041523682,mp-540457,Li4CrP2O9,none,C2/m
3518,fcc,0.041524218,mp-1175365,Li7Mn5O12,0.072,C2/m
3519,hcp,0.041537809,mp-531722,Li5Nb6O18,0.096,P1
3520,none,0.041546868,mp-766731,Li3V3P8O29,none,Cc
3521,hcp,0.041549045,mp-760378,LiTi2O4,0.095,Pmc2_1
3522,none,0.041554795,mp-26855,Li2Sn(PO3)4,none,P4/nbm
3523,fcc,0.041580916,mp-1174375,Li5Mn2CoO8,0.046,P1
3524,fcc,0.04158334,mp-1175266,Li7Mn4CoO12,0.061,C2
3525,none,0.041592577,mp-1222533,Li4SiGe3O10,none,P1
3526,fcc,0.041626172,mp-780214,Li4Mn3Cr3O12,0.067,P2/m
3527,none,0.04162831,mp-705069,LiMnPO4,none,P2_1/c
3528,fcc,0.041638565,mp-1175335,Li7Mn5O12,0.068,P-1
3529,fcc,0.041645081,mp-764763,Li7Mn4O12,0.076,P1
3530,none,0.041687234,mp-540455,Li3V2(PO4)3,none,C2/c
3531,none,0.041707229,mp-1176541,LiVCO4,none,Pnma
3532,fcc,0.0417346,mp-1178130,Li2CrCo3O8,0.076,R32
3533,fcc,0.041738043,mp-765529,Li2MnCoO4,0.044,P2/m
3534,fcc,0.041750802,mp-1177869,Li2V3CoO8,0.07,P2_13
3535,none,0.041767935,mp-762543,LiFe4(PO4)3,none,I-42d
3536,none,0.041777275,mp-1177216,Li4V3P8O29,none,P1
3537,none,0.041777326,mp-777696,LiCrP2O7,none,P2_1/c
3538,none,0.041786396,mp-771795,KLi4FeO5,none,P-1
3539,none,0.041791993,mp-779171,LiCr(PO3)3,none,P-1
3540,fcc,0.0418052,mp-773184,Li2MnSnO4,0.03,Imma
3541,fcc,0.041841534,mp-1174811,Li6Mn3CoO10,0.067,C2
3542,none,0.041857715,mp-1177922,Li2Mn3VO8,none,P2_12_12_1
3543,fcc,0.041857984,mp-31768,LiFe5O8,0,P4_332
3544,none,0.041873692,mp-766663,Li4V3P8O29,none,P1
3545,fcc,0.041877875,mp-761633,Li3Mn(CoO3)2,0.056,C2/m
3546,none,0.041895945,mp-1013899,LiFe3P3O13,none,P2_1/m
3547,none,0.041896103,mp-1100498,Li9Mn7O16,none,C2/m
3548,fcc,0.041904029,mp-1040156,LiCeMg30O32,0,P4/mmm
3549,none,0.041910301,mp-1176752,LiFe4(PO4)3,none,Pnnm
3550,fcc,0.041927903,mp-771720,Li3Mn2NiO6,0.042,C2/m
3551,fcc,0.041952333,mp-1174382,Li5Mn2CoO8,0.046,P1
3552,none,0.041966513,mp-770155,Li3V3(BO5)2,none,P2_1
3553,fcc,0.041970367,mp-769653,Li2TiFe2O5,0.055,P1