,anion_type,e_above_hull,mp_id,pretty_formula,rms,spacegroup.symbol
489,none,0,mp-1020019,Li2PNO2,none,Cmc2_1
490,none,0,mp-16828,Li3B7O12,none,P-1
491,none,0,mp-1020011,Li14P2(N2O)3,none,P-3
492,none,0,mp-1211322,Li2Sm(NO3)5,none,Pnnm
493,none,0,mp-3635,LiBO2,none,P2_1/c
494,none,0,mp-27275,Li3BO3,none,P2_1/c
495,fcc,0,mp-768110,Li2Ti3CoO8,0.062,P2_13
496,none,0,mp-1020024,Li6B4O9,none,P2_1/c
497,none,0,mp-1020014,Li3B11O18,none,P2_1/c
498,none,0,mp-1211252,Li2La(NO3)5,none,Pnnm
499,none,0,mp-559129,Li3Er(NO3)6,none,P2_1/c
500,none,0,mp-8294,Cs2Li2TiO4,none,P-1
501,none,0,mp-10970,LiErO2,none,P2_1/c
502,hcp,0,mp-1210797,Li2MgGeO4,0.007,Pmn2_1
503,none,0,mp-29364,Li5SbO5,none,C2/m
504,none,0,mp-4779,Li2B4O7,none,I4_1cd
505,hcp,0,mp-15066,LiTmSiO4,0.111,Pnma
506,none,0,mp-566981,Li4WO5,none,P-1
507,none,0,mp-554752,RbLi7(SiO4)2,none,C2/m
508,none,0,mp-558310,BaLi2SiO4,none,P6_3cm
509,none,0,mp-1212270,Li3Lu(NO3)6,none,P2_1/c
510,fcc,0,mp-775393,Li2Cr3SbO8,0,P4_332
511,none,0,mp-5127,LiCuO,none,I4/mmm
512,none,0,mp-4711,Li2CuO2,none,Immm
513,none,0,mp-504353,LiSb(PO3)4,none,C2/c
514,fcc,0,mp-5840,LiScO2,0.073,I4_1/amd
515,none,0,mp-763186,Li2Mn3SbO8,none,P31c
516,none,0,mp-5418,Li6Zr2O7,none,C2/c
517,fcc,0,mp-778396,LiMnSbO4,0.083,P4_322
518,fcc,0,mp-773544,LiCoSbO4,0.078,Imma
519,fcc,0,mp-4156,Li2ZrO3,0.048,C2/c
520,fcc,0,mp-775865,Li2Ti3MnO8,0.086,P2_13
521,none,0,mp-6113,LiTiAsO5,none,Pnma
522,fcc,0,mp-762045,Li2Co3SbO8,0.072,P4_332
523,none,0,mp-19970,Li3CuO3,none,P4_2/mnm
524,none,0,mp-1211772,Li3Dy(NO3)6,none,P2_1/c
525,none,0,mp-1212059,Li3Tm(NO3)6,none,P2_1/c
526,hcp,0,mp-8070,Li2BeSiO4,0.11,Pc
527,none,0,mp-8449,Rb2Li2SiO4,none,P-1
528,none,0,mp-562394,Cs4Li2(Si2O5)3,none,P2_1/m
529,none,0,mp-504849,Cs2Li2SiO4,none,P-1
530,none,0,mp-559904,NaLi3SiO4,none,I4_1/a
531,none,0,mp-6031,Li16Nb2N8O,none,R-3
532,none,1.50E-05,mp-7998,Li2Ge2O5,none,Ccc2
533,none,1.88E-05,mp-504356,LiCr4(PO4)3,none,Pnma
534,none,2.13E-05,mp-28450,Li4P2O7,none,P-1
535,none,2.19E-05,mp-766728,LiV(SiO3)2,none,Pbca
536,none,2.56E-05,mp-31583,LiCo(PO3)3,none,P2_12_12_1
537,none,3.15E-05,mp-556783,NaLiCO3,none,P1
538,none,6.22E-05,mp-868281,Li2Cr5(Si2O7)2,none,P-1
539,fcc,6.30E-05,mp-776618,Li4VCr3O8,0,C2/m
540,hcp,6.76E-05,mp-4995,LiSbO3,0.07,Pnna
541,none,7.75E-05,mp-769828,LiCoBO3,none,P-1
542,none,9.15E-05,mp-757242,Li5AuO4,none,Fddd
543,none,9.61E-05,mp-707105,Li3B5(HO5)2,none,P4_12_12
544,bcc,9.72E-05,mp-8874,LiSiBO4,0.175,I-4
545,fcc,0.000104122,mp-770076,Li4CrFe3O8,0.042,P-1
546,fcc,0.000122406,mp-775469,Li6Ti7Cr5O24,0.07,P-1
547,none,0.000128165,mp-561237,LiCaBO3,none,Pbca
548,fcc,0.000137078,mp-1222352,LiTiRhO4,0.061,Imma
549,none,0.000147584,mp-557375,NaLiCO3,none,P-6
550,none,0.000156701,mp-849500,LiMnBO3,none,P2_1/c
551,none,0.000176042,mp-558890,BaLi(B3O5)3,none,R-3c
552,fcc,0.000188068,mp-771082,Li4CrFe3O8,0.041,P-1
553,none,0.000215121,mp-773213,Li3Fe(BO3)2,none,P2_1/c
554,none,0.000216299,mp-1223201,LiCr4(PO4)3,none,P2_12_12_1
555,none,0.000237719,mp-19251,RbLiCrO4,none,P6_3
556,fcc,0.000254326,mp-771651,Li8Mn13Fe3O32,0.084,P-1
557,fcc,0.000260179,mp-554540,Li5ReO6,0.066,P3_112
558,none,0.000279599,mp-769813,LiMnBO3,none,P-1
559,none,0.000313327,mp-779070,Li2NiP2O7,none,P2_1
560,none,0.000315194,mp-26262,LiCu(PO3)4,none,Cc
561,none,0.000373086,mp-1211965,KLiMoO4,none,P2_1/c
562,fcc,0.000417025,mp-773312,Li3Cr2FeO6,0,C2/m
563,none,0.000428353,mp-1222757,Li2MgTi9O20,none,Pm
564,hcp,0.000430354,mp-556786,LiCdPO4,0.132,Pna2_1
565,none,0.000430691,mp-652479,LiZnPO4,none,Cc
566,fcc,0.000435907,mp-770230,Li4CrFe3O8,0.041,P-1
567,fcc,0.000459328,mp-776869,LiFeSbO4,0.078,Imma
568,none,0.000483211,mp-625211,LiH3O2,none,P-1
569,none,0.000487916,mp-770145,Li4CrFe3O8,none,P-1
570,none,0.000492379,mp-555420,NaLiTi3O7,none,Cmce
571,fcc,0.000505903,mp-771661,Li3Cr(FeO3)2,0,C2/m
572,hcp,0.000506164,mp-566680,Li2MnSiO4,0.099,Pmn2_1
573,hcp,0.000516285,mp-9018,LiCdPO4,0.131,Pnma
574,fcc,0.000533977,mp-558294,Li3TaO4,0,P2/c
575,fcc,0.000556332,mp-769507,Li10CoNi9O20,0.055,P2/m
576,fcc,0.000561831,mp-762378,Li2V3CoO8,0.085,R3
577,hcp,0.000585914,mp-755225,Li8ZrO6,0.01,R-3
578,fcc,0.000589712,mp-849570,Li2V3SbO8,0.067,P4_332
579,hcp,0.000624915,mp-1191127,LiCr(WO4)2,0.02,C2/c
580,none,0.000647695,mp-557189,LiPO3,none,P2/c
581,none,0.000652404,mp-1176798,LiCoPO4,none,Cc
582,none,0.000672402,mp-557756,Li4Zn(PO4)2,none,P2_1/c
583,none,0.00068626,mp-23931,LiPH2O3,none,Pna2_1
584,none,0.000691199,mp-540310,Li2Mo(PO3)5,none,P2_1/m
585,none,0.000705717,mp-763403,LiP4WO13,none,P2_12_12_1
586,fcc,0.000737965,mp-766393,Li7Ti11O24,0.073,C2/m
587,fcc,0.000744232,mp-769742,Li4CrFe3O8,0.041,P2/m
588,none,0.000748424,mp-849384,Li11V8(PO4)12,none,P1
589,none,0.000761201,mp-1101493,LiV2(PO4)3,none,C2/c
590,fcc,0.000770814,mp-769753,Li4CrFe3O8,0,C2/m
591,fcc,0.000770988,mp-770185,Li4CrFe3O8,0,P-1
592,none,0.000828995,mp-19430,Li3Fe2(PO4)3,none,R-3
593,fcc,0.000835947,mp-853146,Li4VCr3O8,0,R-3m
594,none,0.000843501,mp-19492,LiMn(PO3)3,none,P2_12_12_1
595,hcp,0.000863104,mp-25613,LiNiAsO4,0.093,Pnma
596,none,0.000887103,mp-771065,Li4CrFe3O8,none,P-1
597,none,0.000894863,mp-1202801,LiPO3,none,Pc
598,fcc,0.000935878,mp-761944,Li2FeCo3O8,0.075,P1
599,hcp,0.000949347,mp-22538,Li8PbO6,0.003,R-3
600,none,0.000959064,mp-1222623,LiLa3MnO7,none,P2_1/m
601,fcc,0.000965348,mp-1176882,Li7Fe5O12,0.057,C2
602,none,0.000982142,mp-775236,LiMnO2,none,C2/m
603,none,0.000995901,mp-559848,Li4SiO4,none,P2_1/m
604,none,0.001017104,mp-19570,Li3Fe2(PO4)3,none,P2_1/c
605,fcc,0.001059527,mp-769992,Li2CrFeO4,0,P-1
606,none,0.00108947,mp-2878,Li3PO4,none,Pnma
607,hcp,0.001119155,mp-763217,LiNiPO4,0.12,P2_1
608,fcc,0.001129532,mp-769996,Li4CrFe3O8,0,C2/m
609,none,0.0011308,mp-1222344,LiTaGeO5,none,Cc
610,none,0.001136408,mp-1222742,Li2MgSiO4,none,Pna2_1
611,none,0.001137978,mp-777711,LiFeBO3,none,Cc
612,none,0.00116468,mp-1202737,Li2MoO4,none,P3_2
613,none,0.001164853,mp-559934,LiZnPO4,none,Pna2_1
614,fcc,0.001168341,mp-767992,LiNi2O3,0.037,C2/c
615,fcc,0.001178248,mp-771096,LiFeSnO4,0.052,Imma
616,none,0.001180159,mp-774742,Li3Sc2(PO4)3,none,P2_1/c
617,none,0.001181551,mp-774715,Ba4LiNb3O12,none,Pnma
618,fcc,0.001206874,mp-770020,Li2CrFeO4,0.043,C2/m
619,none,0.00120813,mp-1222860,Li7Mn(BO3)3,none,P-1
620,none,0.001215422,mp-25840,LiTi2(PO4)3,none,P2_1/c
621,none,0.001217078,mp-23662,LiB(HO)4,none,Pbca
622,none,0.001240868,mp-25660,LiCo2P3O10,none,P2_1/m
623,none,0.001281302,mp-763461,LiP3(WO6)2,none,P2_1/c
624,none,0.001286468,mp-1020026,LiBeBO3,none,P-1
625,hcp,0.001289213,mp-18968,Li2FeSiO4,0.092,Pmn2_1
626,fcc,0.001291197,mp-768046,LiVCoO4,0,Imma
627,fcc,0.00130142,mp-770037,LiMnSnO4,0.074,Imma
628,fcc,0.001304465,mp-769998,Li2CrFeO4,0.042,P-1
629,none,0.001305353,mp-28548,Li8GeO6,none,P6_3cm
630,none,0.001309882,mp-31539,Li4Co(PO4)2,none,P2_1/c
631,none,0.001368658,mp-853258,Li2V2(PO4)3,none,P2_1/c
632,fcc,0.001371529,mp-765495,Li4CrFe3O8,0,R-3m
633,none,0.0013723,mp-1101492,LiV2(PO4)3,none,Cc
634,fcc,0.001375986,mp-1211187,Li5OsO6,0.062,P3_112
635,none,0.001378216,mp-1200615,Li4Zn(PO4)2,none,P2_1
636,fcc,0.001402637,mp-770328,Li4Cr3FeO8,0.044,P-1
637,fcc,0.001409957,mp-762296,Li2Co3NiO8,0.075,P4_332
638,fcc,0.001413844,mp-773039,Li2Ti6Zn3O16,0.084,P2_1
639,hcp,0.001432788,mp-8870,LiMgAsO4,0.102,Pnma
640,fcc,0.001442743,mp-770013,Li2CrFeO4,0.042,P-1
641,none,0.001459863,mp-541272,LiGe2(PO4)3,none,R-3c
642,none,0.001468775,mp-996997,LiAgO2,none,Pmna
643,none,0.001514582,mp-555899,Li2Si3O7,none,Pbcm
644,none,0.00159281,mp-759793,LiTi2(PO4)3,none,Pna2_1
645,fcc,0.001643826,mp-770032,Li2CrFeO4,0.042,P-1
646,none,0.001652086,mp-32066,LiMo2(PO4)3,none,P-1
647,fcc,0.001655441,mp-1185179,Li10Co4O9,0.082,P4_2/nmc
648,none,0.001664919,mp-646320,Li2FeSiO4,none,P2_1/c
649,hcp,0.001668851,mp-7205,LiInSiO4,0.106,Pnma
650,none,0.001721446,mp-770805,Li6Hf2O7,none,P2_1/c
651,fcc,0.001750556,mp-770193,Li2CrFeO4,0.042,C2/m
652,none,0.001756519,mp-762728,Li3Fe2(PO4)3,none,P1
653,none,0.001767454,mp-762678,LiFeSiO4,none,R3
654,none,0.001776875,mp-1199961,Li2V2(PO4)3,none,Pbcn
655,fcc,0.001789799,mp-1177503,Li4Cr3FeO8,0,C2/m
656,none,0.00181499,mp-765567,Li4P5HO15,none,P-1
657,fcc,0.00182037,mp-777396,Li2Mn3FeO8,0.081,P4_32_12
658,none,0.001836467,mp-556814,LiNdGeO4,none,Pbcn
659,none,0.001859312,mp-585378,Li2Co3(P2O7)2,none,P2_1/c
660,fcc,0.001879103,mp-769454,Li9(NiO2)10,0.06,P-1
661,none,0.001881366,mp-6175,BaLi2P2O7,none,C2/c
662,none,0.001904293,mp-767242,LiCo2(PO4)2,none,Pc
663,none,0.001926487,mp-566811,LiCr3O8,none,C2/m
664,hcp,0.001943835,mp-775199,LiMnVO4,0.093,Pnma
665,none,0.002025637,mp-1097867,LiMn2O4,none,P1
666,none,0.002055283,mp-6553,LiSc(SiO3)2,none,C2/c
667,none,0.002107451,mp-6099,LiSc(SiO3)2,none,P2_1/c
668,fcc,0.002141468,mp-1037677,LiMg30FeO32,0,P4/mmm
669,none,0.002146495,mp-770361,LiV2BO5,none,Pbam
670,fcc,0.002171146,mp-769983,Li2CrFeO4,0,P2/m
671,none,0.002191222,mp-1176564,LiTmO2,none,P2_1/c
672,none,0.0021955,mp-19061,LiFe(SiO3)2,none,P2_1/c
673,fcc,0.002234852,mp-770492,Li24Mn11CrO36,0.065,P1
674,fcc,0.002247771,mp-770668,Li24Mn11CrO36,0.064,C2
675,hcp,0.002250981,mp-8611,Li8CeO6,0.009,R-3
676,none,0.002286011,mp-620862,LiTl3(MoO4)2,none,P6_3mc
677,fcc,0.002301685,mp-1222354,LiInO2,0.051,I4_1md
678,none,0.00230282,mp-6259,SrLi2Ta2O7,none,I4/mmm
679,fcc,0.002307129,mp-770669,Li24Mn11CrO36,0.066,C2
680,fcc,0.002318124,mp-776833,Li2Fe3SbO8,0.064,P4_332
681,none,0.002376764,mp-565348,LiMnO2,none,I4_1/amd
682,none,0.002389297,mp-850900,Li3V2(PO4)3,none,R-3
683,none,0.002396261,mp-1020725,Sr4Li2B12O23,none,P2_1/c
684,none,0.002404954,mp-1021510,LiGe2(PO4)3,none,R-3
685,none,0.002417388,mp-704540,LiMo2(PO4)3,none,Cc
686,fcc,0.002461626,mp-1177935,Li2Mn3CoO8,0.072,P4_332
687,none,0.002466375,mp-510708,LiFe(SiO3)2,none,C2/c
688,none,0.002486745,mp-966801,LiCaBO3,none,Ibca
689,none,0.002507233,mp-540489,LiCoPO4,none,Pna2_1
690,none,0.002507622,mp-558431,LiCu(PO3)3,none,P-1
691,fcc,0.00252444,mp-770619,Li24Mn11CrO36,0.064,C2
692,none,0.002533535,mp-28545,RbLiO,none,Pnma
693,none,0.002543465,mp-14488,Li3In2(PO4)3,none,P2_1/c
694,none,0.002587395,mp-761416,LiFe(SiO3)2,none,Pbca
695,fcc,0.002595698,mp-770622,Li24Mn11CrO36,0.065,C2
696,none,0.002610024,mp-759377,LiTi2(PO4)3,none,P2_1/c
697,none,0.002616068,mp-764636,K2Li2CoO4,none,P2_1/c
698,fcc,0.002625133,mp-767942,Li3Fe3CoO8,0.058,R-3m
699,fcc,0.002633136,mp-10971,LiErO2,0.098,I4_1/amd
700,none,0.002634664,mp-705804,LiMnO2,none,Cm
701,fcc,0.002635108,mp-1178042,Li2CoNi3O8,0.077,P4_32_12
702,none,0.00265611,mp-559987,LiAl(PO3)4,none,Pbcn
703,hcp,0.002658546,mp-1222820,Li2MgGeO4,0.121,Pna2_1
704,none,0.002672969,mp-759384,LiSn2(PO4)3,none,P-1
705,fcc,0.002675469,mp-691145,Li2NiO3,0.07,C2/c
706,none,0.002720409,mp-1197890,Li2Ti2(PO4)3,none,Pbcn
707,none,0.002734348,mp-553950,Li10Si2PbO10,none,C2/m
708,fcc,0.002746108,mp-1040079,LiMg30CrO32,0,P4/mmm
709,hcp,0.002759914,mp-752922,Li8HfO6,0.053,R-3
710,none,0.002803838,mp-16699,Li6Gd(BO3)3,none,P2_1/c
711,none,0.002812648,mp-27094,LiSn2(PO4)3,none,P2_1/c
712,none,0.002830776,mp-1211383,Li2Ni2(MoO4)3,none,Pnma
713,none,0.002845811,mp-6413,LiDy(PO3)4,none,C2/c
714,fcc,0.002871396,mp-1190434,Li2IrO3,0,Fddd
715,fcc,0.002923788,mp-779361,Li24Ti11CrO36,0.062,P1
716,none,0.002928137,mp-761376,Li3V2(PO4)3,none,P2_1/c
717,none,0.002938034,mp-6478,LiTaGeO5,none,C2/c
718,fcc,0.002963232,mp-771759,Li2Ti3CrO8,0.069,R-3m
719,none,0.002976006,mp-555366,LiHo(PO3)4,none,C2/c
720,fcc,0.002996098,mp-768114,Li6Ti9O20,0.075,C2/m
721,none,0.00300006,mp-540700,LiV3O8,none,P2_1/m
722,fcc,0.003023912,mp-778889,Li24Ti11CrO36,0.063,C2
723,fcc,0.00303585,mp-779092,Li24Ti11CrO36,0.062,C2
724,none,0.003062749,mp-1101531,Li9Co3P8O29,none,Cc
725,none,0.003086171,mp-699330,LiCr3O8,none,Pnnm
726,none,0.003133219,mp-777682,Li2NbV3O8,none,P6_3mc
727,fcc,0.003153322,mp-1038038,LiMg30MnO32,0,P4/mmm
728,none,0.003156328,mp-761731,K2Li2CoO4,none,P1
729,fcc,0.00319177,mp-1199729,LiMn2O4,0.095,Fddd
730,fcc,0.003207886,mp-774304,Li2V3WO8,0.067,P4_332
731,none,0.003210939,mp-776365,Li9Mn21O40,none,P1
732,fcc,0.00321189,mp-779227,Li24Ti11CrO36,0.061,C2
733,fcc,0.003213554,mp-757535,Li35(RuO4)12,0.032,C2
734,fcc,0.00324005,mp-6146,LiNbZnO4,0.063,P4_122
735,fcc,0.003243312,mp-18037,LiNbZnO4,0.063,P4_322
736,none,0.003243709,mp-1211607,Li3La2(BO3)3,none,P2_1/c
737,none,0.003250795,mp-761677,LiCoPO4,none,Pc
738,fcc,0.003310173,mp-765743,Li2CrFeO4,0,Imma
739,none,0.003312129,mp-850262,Li2FeP2O7,none,P2_1/c
740,none,0.003346341,mp-1019716,CsLi4(BO2)5,none,P2_1/c
741,fcc,0.003347276,mp-773961,Li8Mn15NiO32,0.088,R32
742,none,0.003356369,mp-32102,LiMo2P2O11,none,P2_1/m
743,fcc,0.003383799,mp-7535,Li5AlO4,0.08,Pmmn
744,none,0.003384828,mp-755703,LiSbO2,none,C2/c
745,none,0.003406102,mp-755707,K3LiTi7O16,none,P1
746,hcp,0.003411428,mp-27968,Li6Ge2O7,0.128,P2_1/c
747,none,0.003414391,mp-27122,LiSn2(PO4)3,none,P-1
748,fcc,0.003469679,mp-779775,Li24Ti11CrO36,0.061,C2
749,fcc,0.003484719,mp-771926,LiFeSbO4,0.076,P4_322
750,none,0.003517795,mp-997544,Li2V2(PO4)3,none,P1
751,fcc,0.003549805,mp-769460,Li9Mn12Ni3O32,0.072,C2
752,none,0.003560744,mp-504176,Li9Mn3P8O29,none,C2/c
753,hcp,0.003561446,mp-767128,Li2CoSiO4,0.088,Pmn2_1
754,none,0.003562842,mp-6674,LiLa2SbO6,none,P2_1/c
755,fcc,0.003575957,mp-773266,Li7Ni5O12,0.066,C2
756,fcc,0.003622138,mp-761957,Li2Mn3CoO8,0.084,P2_13
757,fcc,0.003683512,mp-775679,Li2Mn3CrO8,0.079,P4_32_12
758,hcp,0.003705316,mp-1222598,Li3AsO4,0.135,Pnma
759,fcc,0.003749625,mp-761710,LiFeCoO4,0.077,Imma
760,fcc,0.003772623,mp-1178037,Li2CoNi3O8,0.079,P1
761,none,0.003772671,mp-23894,LiAs(HO2)2,none,Pna2_1
762,fcc,0.003801387,mp-779755,Li5Mn7Fe3O20,0.082,P1
763,fcc,0.003827036,mp-770651,Li10Fe9CoO20,0.043,P2/m
764,none,0.003858521,mp-16804,LiCaPO4,none,P31c
765,fcc,0.003878051,mp-698842,Li19Ni23O42,0.056,P-1
766,hcp,0.003888891,mp-769771,Li2CoGeO4,0.055,Pmn2_1
767,fcc,0.003907362,mp-765712,Li4FeNi3O8,0.074,P-1
768,none,0.003917342,mp-772578,Li2Mn3SnO8,none,Cmc2_1
769,fcc,0.00394804,mp-625998,LiHO,0.091,Aem2
770,fcc,0.003985011,mp-775616,Li2Ti3CrO8,0,P4_332
771,none,0.003986159,mp-31585,LiCoPO4,none,P2_1/c
772,none,0.0040662,mp-556799,Li3In(BO3)2,none,P2_1/c
773,none,0.004080712,mp-772521,Li8TiO6,none,P6_3cm
774,none,0.004088352,mp-761393,LiP4WO13,none,P1
775,fcc,0.004114807,mp-773367,LiMnNiO4,0.079,Imma
776,hcp,0.004157811,mp-763309,Li2CoSiO4,0.124,Pnma
777,none,0.004162334,mp-17056,LiZnPO4,none,R3
778,fcc,0.004165134,mp-769450,Li9Mn15O32,0.092,P1
779,none,0.004234878,mp-585338,Li3Mn3(PO4)4,none,P1
780,none,0.004260507,mp-540112,LiFe(PO3)3,none,P2_12_12_1
781,none,0.004268307,mp-763304,Li2CoSiO4,none,Pna2_1
782,fcc,0.004269824,mp-1097058,LiMn2O4,0.085,P1
783,fcc,0.004276956,mp-761941,Li2Cr3WO8,0.071,P4_332
784,none,0.00430397,mp-761812,LiCoPO4,none,Pca2_1
785,none,0.004326328,mp-762579,Li2V2(PO4)3,none,P-1
786,none,0.004351249,mp-997536,Li3V2(PO4)3,none,P2_12_12
787,none,0.004374898,mp-761578,Li2Cr3(SiO3)4,none,Pnma
788,none,0.004397693,mp-853263,Li5V4(PO4)6,none,Pc
789,none,0.004421041,mp-585361,Li9Co3P8O29,none,C2/c
790,none,0.004466564,mp-775496,Li3Mn5Cr3O16,none,Cm
791,none,0.004469587,mp-769522,Li13Mg(Ni6O13)2,none,P-1
792,fcc,0.004517087,mp-771052,Li10Fe3Ni7O20,0.05,P2/m
793,none,0.004560067,mp-764641,Li2CoSiO4,none,Pna2_1
794,none,0.004564118,mp-694851,LiMnO2,none,Pmm2
795,none,0.004597139,mp-764152,Li2NiP2O7,none,P2_1/c
796,none,0.004599068,mp-1202325,LiAl(Si2O5)2,none,Pc
797,fcc,0.004617752,mp-761369,Li13Ni15O28,0.063,P-1
798,fcc,0.004618125,mp-778798,Li32Mn13Cr3O48,0.065,P1
799,none,0.004635547,mp-15362,Li3Nd2(BO3)3,none,P2_1/c
800,fcc,0.0046391,mp-779189,Li32Mn13Cr3O48,0.065,P1
801,none,0.004647049,mp-780493,Li8CrO6,none,P6_3cm
802,none,0.004667688,mp-697764,LiFeP2O7,none,C2
803,fcc,0.004704849,mp-779206,Li32Mn13Cr3O48,0.066,P1
804,fcc,0.004765417,mp-779270,Li32Mn13Cr3O48,0.064,P1
805,fcc,0.004770081,mp-1177789,Li32Mn13Cr3O48,0.066,P1
806,fcc,0.004802381,mp-779198,Li32Mn13Cr3O48,0.066,P1
807,fcc,0.004848203,mp-775564,Li2TiV3O8,0.066,P2_12_12_1
808,fcc,0.004877665,mp-531523,LiGa5O8,0,Pmna
809,none,0.004880798,mp-1101516,LiFeP2O7,none,C2/c
810,fcc,0.004888436,mp-779803,Li32Mn13Cr3O48,0.065,P1
811,fcc,0.004890841,mp-1177747,Li32Mn13Cr3O48,0.066,P1
812,none,0.004919798,mp-556861,LiY(PO3)4,none,C2/c
813,none,0.004926085,mp-775597,Li3Cr2(PO4)3,none,P2_1/c
814,none,0.004960176,mp-19043,LiV(SiO3)2,none,C2/c
815,fcc,0.004972324,mp-18933,Li2WO4,0.089,I4_1/amd
816,none,0.005006052,mp-561390,LiYb(PO3)4,none,C2/c
817,fcc,0.005010193,mp-1177793,Li32Mn13Cr3O48,0.066,P1
818,hcp,0.005016905,mp-764341,Li3FeSiO5,0.085,Pna2_1
819,none,0.005020417,mp-1223290,Li2CaV12O32,none,Cm
820,none,0.005056485,mp-1176701,LiFeBO3,none,P-1
821,none,0.005065198,mp-762240,K2Li2TiO4,none,P2_1/c
822,fcc,0.005076287,mp-779392,Li32Mn13Cr3O48,0.065,P1
823,none,0.005080952,mp-1201415,Li3V(H4O3)4,none,P1
824,none,0.005081474,mp-554159,Li2BeSiO4,none,C222_1
825,none,0.005106931,mp-26702,LiSn2(PO4)3,none,P2_1/c
826,fcc,0.005116303,mp-769555,Li10Co3Ni7O20,0,P-1
827,fcc,0.005133026,mp-1177916,Li2MnCr3O8,0.071,P4_32_12
828,fcc,0.005218509,mp-769609,Li4VCr3O8,0.044,P-1
829,none,0.005225524,mp-540113,Li3Cr2(PO4)3,none,P2_1/c
830,none,0.005232613,mp-1019615,Cs3Li4(BO2)7,none,P3_121
831,fcc,0.005236445,mp-770041,Li3VCr2O6,0,C2/m
832,none,0.005264549,mp-761736,LiCoPO4,none,Pca2_1
833,none,0.0052768,mp-27017,LiSnPO4,none,Pna2_1
834,hcp,0.005299013,mp-25507,LiCrPO4,0.132,Pnma
835,none,0.005317998,mp-562473,LiSn2(PO4)3,none,R-3c
836,none,0.005362236,mp-510529,LiCr(SiO3)2,none,P2_1/c
837,none,0.005371976,mp-762641,LiFe(PO3)3,none,P2_12_12_1
838,none,0.005376516,mp-769593,Li4VCr3O8,none,P-1
839,none,0.005381219,mp-559070,Li2Hg(PO3)4,none,P2_1/c
840,fcc,0.005414916,mp-769605,Li4VCr3O8,0.043,P-1
841,none,0.005437545,mp-1223182,Li2Fe2(MoO4)3,none,Pc
842,fcc,0.00544297,mp-1174196,Li7Co5O12,0.062,C2/m
843,fcc,0.005448148,mp-768091,Li4Ni7O11,0.051,P-1
844,none,0.005513058,mp-1004373,LiMnO2,none,Pnma
845,fcc,0.005515293,mp-771876,Li5NiO4,0.086,Pbca
846,none,0.005517524,mp-559715,Li2Cd(PO3)4,none,Pnma
847,hcp,0.005535237,mp-767230,LiMn2(PO4)2,0.149,P2_1
848,fcc,0.005611523,mp-769435,Li13Ni15O28,0.062,P-1
849,fcc,0.005640902,mp-774288,Li2V3CrO8,0.071,P2_1
850,fcc,0.005666751,mp-765786,Li2CoNiO4,0.036,Imma
851,none,0.005679074,mp-1180540,LiSc(SiO3)2,none,P2_1/c
852,none,0.005688472,mp-1183402,BaLi(B3O5)3,none,R3c
853,fcc,0.005740609,mp-769595,Li4VCr3O8,0.043,P-1
854,hcp,0.005760164,mp-8469,Li8IrO6,0.053,R-3
855,none,0.005766753,mp-773017,LiTi2(PO4)3,none,Pca2_1
856,none,0.005773421,mp-18809,Li2VGeO5,none,P4/nmm
857,hcp,0.005791125,mp-24861,LiCoAsO4,0.103,Pnma
858,none,0.005799434,mp-26884,LiTi2(PO4)3,none,P-1
859,none,0.005827458,mp-18727,LiCr(SiO3)2,none,C2/c
860,fcc,0.005856967,mp-771630,LiCr3(FeO4)2,0.055,R3m
861,none,0.005882568,mp-556137,Li2Ca4Si4O13,none,P-1
862,none,0.005882987,mp-1190183,Li2CaTa2O7,none,Cmcm
863,none,0.005886222,mp-769794,Li2CrO3,none,C2/c
864,none,0.005902594,mp-773251,Li5Co2Ni3O10,none,P-1
865,none,0.005930093,mp-763645,Li2FeSiO4,none,Pnma
866,fcc,0.005944196,mp-850062,LiNiO2,0.059,P-1
867,none,0.005949145,mp-6097,Li3Al(BO3)2,none,P-1
868,none,0.005952197,mp-1211000,LiSm(WO4)2,none,P2/c
869,fcc,0.0059669,mp-767950,Li4Ni5O9,0.062,P-1
870,fcc,0.006007598,mp-1222530,LiFe2Rh3O8,0.052,R3m
871,fcc,0.006021659,mp-1178030,Li2Cr3SbO8,0.071,R-3m
872,fcc,0.00606421,mp-772339,LiNbFeO4,0,P4_322
873,fcc,0.00608797,mp-866271,LiNiO2,0.057,C2/m
874,none,0.006118709,mp-540135,Li2Mn(PO3)4,none,Pnma
875,none,0.006131719,mp-14399,LiAlSiO4,none,P6_222
876,none,0.006132658,mp-6326,LiAlSiO4,none,P6_422
877,none,0.006167659,mp-769825,LiFeBO3,none,P-6
878,fcc,0.006259985,mp-1177945,Li2FeO3,0.063,C2/m
879,none,0.006266376,mp-504186,Li3Fe2(PO4)3,none,P2_1/c
880,none,0.006275157,mp-1020012,Li2Ge4O9,none,Pca2_1
881,fcc,0.006311293,mp-776136,Li2VCrO4,0.043,C2/m
882,none,0.006319255,mp-1211550,Li3Yb2(BO3)3,none,P2_1/c
883,fcc,0.006322452,mp-1177824,Li32Ti13Cr3O48,0.063,P1
884,none,0.006348425,mp-764774,LiTi2V3O12,none,P2_1/c
885,fcc,0.006378915,mp-1185524,Li95Mn16O64,0.032,Pmm2