,anion_type,e_above_hull,mp_id,pretty_formula,rms,spacegroup.symbol
3935,none,0.046186945,mp-1101557,Li2Mn(PO4)2,none,P2_1
3936,none,0.046201834,mp-26312,Li4Cu(PO4)2,none,Pc
3937,none,0.04621732,mp-1177228,Li4V3P8O29,none,P1
3938,none,0.046227134,mp-764880,Li5Fe8(BO3)8,none,P1
3939,none,0.046230787,mp-1198472,Li2V18O39,none,C2/m
3940,none,0.046235443,mp-1177197,Li4V3P8O29,none,P1
3941,none,0.046244447,mp-768320,LiLa5Ti8O24,none,Cm
3942,none,0.046246274,mp-765017,Li4V3P8O29,none,P1
3943,hcp,0.046246867,mp-759560,LiTi6O12,0.129,P2_1
3944,none,0.046248611,mp-27111,Li3Sb3(PO4)4,none,P1
3945,none,0.046252528,mp-761948,Li3V3P8O29,none,P1
3946,none,0.046273771,mp-767800,Li2Mn(PO4)2,none,Cc
3947,fcc,0.046274831,mp-997521,Li4Ni7O12,0.07,P1
3948,none,0.046276637,mp-765251,Li4V3P8O29,none,P1
3949,none,0.046276687,mp-775173,Li4V3P8O29,none,P1
3950,fcc,0.046281995,mp-1175149,Li7Mn4CoO12,0,P-1
3951,none,0.046292064,mp-1222453,LiLa4CuO8,none,C2/m
3952,fcc,0.046293127,mp-769646,Li2TiCo2O5,0.055,C2
3953,none,0.046304935,mp-762385,Li4(NiO2)11,none,P-1
3954,none,0.046306903,mp-764464,Li5Fe8(BO3)8,none,P1
3955,fcc,0.046321011,mp-762917,Li2Fe(NiO3)2,0.086,P-1
3956,none,0.046328777,mp-760683,Li4Cu(PO3)6,none,P1
3957,none,0.046330513,mp-32352,LiNi(PO3)4,none,Cc
3958,fcc,0.046332965,mp-767923,Li6W2O9,0.069,C2/c
3959,none,0.046348328,mp-26652,LiSb(PO3)5,none,P2_1/c
3960,none,0.046358412,mp-761821,LiCoPO4,none,P-1
3961,none,0.046365436,mp-27093,Li3Sn2(PO4)3,none,P2_1/c
3962,none,0.046366296,mp-758086,LiSn(PO3)3,none,P2_12_12_1
3963,fcc,0.046372353,mp-1035901,LiYMg14O16,0,P4/mmm
3964,fcc,0.04639062,mp-1035918,LiYMg14O16,0,Pmmm
3965,fcc,0.046403303,mp-762906,Li2Fe3CoO8,0.082,C2/m
3966,fcc,0.046408233,mp-764942,Li5Mn2Co5O12,0.053,C2
3967,none,0.046417415,mp-1177183,Li4V3P8O29,none,P1
3968,none,0.046417789,mp-1177841,Li2V3CuO8,none,P4_32_12
3969,none,0.046431415,mp-851059,Li4V3P8O29,none,Cc
3970,fcc,0.046437861,mp-762869,LiMn2O4,0.084,C2/c
3971,none,0.046438682,mp-705404,Li4Fe3P4O15,none,Pna2_1
3972,fcc,0.046440248,mp-1174009,Li5Mn2CoO8,0.048,P-1
3973,none,0.046443203,mp-765355,Li4V3P8O29,none,P1
3974,none,0.046447056,mp-996988,LiAgO2,none,Pmmm
3975,none,0.046450731,mp-766678,Li3Cr(Si2O5)3,none,Pnma
3976,none,0.046481579,mp-1003313,Li2Mn3O6,none,C2/m
3977,none,0.046488209,mp-1177796,Li3Fe3(PO4)4,none,P-1
3978,fcc,0.046488673,mp-769658,Li2TiFeO4,0.079,Cc
3979,none,0.04649045,mp-764542,Li5Fe8(BO3)8,none,P1
3980,none,0.04649905,mp-1177198,Li4V3P8O29,none,P1
3981,none,0.046514032,mp-762558,Li2Fe(PO3)5,none,Pc
3982,none,0.046520554,mp-850768,Li9V6(P8O29)2,none,P1
3983,none,0.04655527,mp-863865,Li3V3P8O29,none,P1
3984,none,0.046558482,mp-764077,Li3V3P8O29,none,P1
3985,fcc,0.046561526,mp-762455,Li4(FeO2)5,0.066,P1
3986,fcc,0.046564666,mp-780821,Li3VCr3O8,0.091,C2/m
3987,none,0.046568819,mp-764990,Li4V3P8O29,none,P1
3988,none,0.046572102,mp-764945,LiCoSiO4,none,R3
3989,none,0.046578785,mp-1177203,Li4V3P8O29,none,Cc
3990,none,0.046594275,mp-1177383,Li4V3P8O29,none,P1
3991,none,0.046594945,mp-1040115,NaLiMg30O31,none,Pmm2
3992,none,0.046621721,mp-755559,LiNbO3,none,C2/m
3993,none,0.046632675,mp-767302,Li2SiNiO4,none,P2_1
3994,none,0.04665477,mp-761591,Li3Mn2(PO4)3,none,C2
3995,fcc,0.046658512,mp-774942,Li2V3CuO8,0.088,P4_3
3996,none,0.046675227,mp-778331,Li5Fe8(BO3)8,none,P1
3997,hcp,0.046684605,mp-756035,LiTi4O8,0.128,Pm
3998,none,0.046721147,mp-775269,LiFe2(BO3)2,none,Pc
3999,none,0.046730049,mp-766967,Li2Mn3(Si3O8)2,none,P-1
4000,none,0.046734928,mp-762951,Li3V3P8O29,none,P1
4001,none,0.046745292,mp-684493,LiSn2P3O10,none,P2_1/c
4002,none,0.046755802,mp-766717,Li3V3P8O29,none,P1
4003,none,0.046759128,mp-763543,LiP3W2O13,none,P-1
4004,fcc,0.046766882,mp-769966,Li3TiFe3O8,0.055,R-3m
4005,fcc,0.046770283,mp-1040126,LiLaMg30O32,0,P4/mmm
4006,none,0.046771304,mp-777139,Li2Mn3(BO3)3,none,P1
4007,fcc,0.046772069,mp-777604,Li2MnCo3O8,0.085,C2/m
4008,none,0.046801547,mp-762717,LiMn2(PO4)3,none,P1
4009,none,0.046829049,mp-764988,Li4V3P8O29,none,P1
4010,none,0.046829416,mp-684082,LiSb(PO3)4,none,C2/m
4011,none,0.046842393,mp-540272,LiNiP2O7,none,P-1
4012,none,0.046843533,mp-772535,LiNb13O33,none,C2/m
4013,hcp,0.046894206,mp-767456,Li3Ta5Cu2O15,0.097,R3
4014,none,0.046895465,mp-850234,Li3V3P8O29,none,P1
4015,none,0.04690053,mp-768960,Li5BO4,none,Pbca
4016,none,0.04690082,mp-772596,Li2FeNi3O8,none,Cmc2_1
4017,none,0.046904423,mp-540530,Li2Co(PO3)4,none,P-1
4018,fcc,0.046905119,mp-850358,LiCuSbO4,0.098,Imma
4019,hcp,0.046909672,mp-31591,LiCoPO4,0.14,Pna2_1
4020,none,0.046911616,mp-763554,LiVP2O7,none,P2_1/c
4021,none,0.046916839,mp-1177215,Li4V3P8O29,none,P1
4022,none,0.04691791,mp-1177200,Li4V3P8O29,none,P1
4023,none,0.046938349,mp-767268,LiV9O22,none,P2_1/m
4024,none,0.046945193,mp-764994,Li3V3P8O29,none,P1
4025,none,0.046984291,mp-863894,Li3V3P8O29,none,P1
4026,none,0.047001793,mp-1040127,NaLiMg30O31,none,Pmm2
4027,none,0.047008778,mp-853242,Li4V3P8O29,none,P1
4028,fcc,0.047024981,mp-1173968,Li3Mn2CoO6,0.053,C2/m
4029,none,0.047030039,mp-762872,Li3Ti2Mn3O10,none,P-1
4030,none,0.047031524,mp-1176700,LiMn(PO3)4,none,C2/c
4031,fcc,0.047041846,mp-765419,Li6V5O12,0.069,P1
4032,none,0.047045209,mp-851266,Li4V3P8O29,none,P1
4033,none,0.047045411,mp-762188,Li2VP3O10,none,P2_1/c
4034,none,0.047048772,mp-684106,LiSbP2O7,none,P2_1/c
4035,none,0.04705438,mp-1177532,Li3V3P8O29,none,P1
4036,fcc,0.047059749,mp-771210,Li3CrFe3O8,0.059,R-3m
4037,fcc,0.047059933,mp-1177957,Li2Ni3WO8,0.063,P2_12_12_1
4038,none,0.047064477,mp-1177309,Li4V3P8O29,none,C2
4039,none,0.047076078,mp-684104,LiSb2P5O16,none,Pc
4040,none,0.047084056,mp-753425,LiCuCO3,none,Cmme
4041,none,0.047087036,mp-771077,LiFeB2O5,none,P2_1/c
4042,fcc,0.047100084,mp-767275,Li2CoCuO4,0.035,Imma
4043,none,0.047107388,mp-764656,LiFe2(BO3)2,none,P1
4044,none,0.047130619,mp-765858,Li2Ni3(P2O7)2,none,P-1
4045,hcp,0.047135586,mp-771673,Li4Fe3NiO8,0.006,P1
4046,none,0.047138505,mp-851247,Li4V3P8O29,none,P1
4047,none,0.047161929,mp-771634,KLi(WO3)3,none,Cc
4048,none,0.04716769,mp-764119,Li3V3P8O29,none,P1
4049,none,0.047173309,mp-774251,LiFePO4,none,P-1
4050,hcp,0.0471782,mp-761461,LiFePO4,0.169,Pna2_1
4051,fcc,0.047196405,mp-849953,Li2Mn3VO8,0.085,P2_1
4052,none,0.047196894,mp-770007,LiCoBO3,none,P2_1/c
4053,none,0.047201528,mp-762492,Li2Fe(PO3)4,none,P2_1/c
4054,none,0.047221382,mp-770684,LiCr2O4,none,Pnma
4055,none,0.047242032,mp-766674,Li3V3P8O29,none,P1
4056,fcc,0.047247638,mp-765424,Li2Co3SnO8,0.075,R-3m
4057,none,0.047253106,mp-851256,Li4V3P8O29,none,P1
4058,fcc,0.047259013,mp-770851,Li2TiNi2O5,0.042,C2
4059,none,0.047276739,mp-1177242,Li4V3(CO3)6,none,P-1
4060,none,0.047277772,mp-1177812,Li2VCO5,none,Pbam
4061,none,0.047295874,mp-763669,Li4Ti2Mn3O10,none,P-1
4062,none,0.047323069,mp-761518,Li2Fe(PO4)2,none,P2_1/c
4063,none,0.047333781,mp-763355,Li4V5(P3O11)2,none,P2_1/c
4064,fcc,0.047334517,mp-771197,Li4Co7O16,0.104,P2_1
4065,none,0.047356331,mp-762955,Li3V3P8O29,none,P1
4066,none,0.047360881,mp-762786,Li3Fe2(SiO4)2,none,P2_1
4067,none,0.047365648,mp-1177505,Li4Co2(PO4)3,none,Pbcn
4068,fcc,0.047390604,mp-762617,Li4Ni3(SnO5)2,0.078,P-1
4069,none,0.047405919,mp-851055,Li4V3P8O29,none,P1
4070,fcc,0.047413164,mp-850107,LiMnO2,0.048,Pmmn
4071,none,0.047425312,mp-704962,Li3Mn3(PO4)4,none,P2_1
4072,none,0.047450264,mp-765023,Li5Mn(CO3)4,none,P2_1/c
4073,none,0.047461277,mp-540021,LiMn2P3O11,none,C2
4074,fcc,0.047492876,mp-770840,LiVGaO4,0.075,Imma
4075,none,0.047497631,mp-767819,LiCoP2O7,none,Pc
4076,none,0.047501219,mp-775383,Li4V3P8O29,none,P1
4077,none,0.047531616,mp-1177218,Li4V3P8O29,none,P1
4078,none,0.047533901,mp-759251,LiSb(PO3)4,none,P2_1/c
4079,none,0.047536217,mp-780877,Li2Mn3(BO3)3,none,P-1
4080,none,0.047544491,mp-780149,Li2Mn3(BO3)3,none,P-1
4081,none,0.047556659,mp-763408,Li3Co2(CO3)4,none,P1
4082,fcc,0.047579832,mp-774237,Li5Cr2Ni5O12,0.047,C2
4083,none,0.047594707,mp-762048,Li3V(CO3)3,none,Ama2
4084,none,0.047608097,mp-781502,Li2Mn3(BO3)3,none,P1
4085,fcc,0.047615592,mp-775779,Li3MnV4O8,0,C2/m
4086,none,0.047623576,mp-1178046,Li2Co(CO3)2,none,P2_1/c
4087,fcc,0.047627772,mp-762514,LiMn3O6,0.105,P1
4088,none,0.047633548,mp-768185,Ba4Li4Ti19O44,none,P1
4089,none,0.047640265,mp-764791,Li2Mn(SiO3)2,none,Cc
4090,none,0.047678495,mp-853217,Li9Mn7Cr12O48,none,P1
4091,fcc,0.047684063,mp-38468,Li7Ti12O24,0.049,Pm
4092,none,0.047724447,mp-770242,LiCrBO3,none,P-1
4093,none,0.04772745,mp-773465,Li4TiV3O10,none,P-4m2
4094,none,0.047731401,mp-768074,LiTaWO6,none,P4_122
4095,none,0.047748744,mp-26467,LiCuPO4,none,P2_1/c
4096,none,0.0477692,mp-1177390,Li5Fe4(P2O7)4,none,P1
4097,fcc,0.047786804,mp-1178116,Li(Fe2O3)4,0,Cc
4098,none,0.047814217,mp-1177456,Li4Cr3(CO3)6,none,P-1
4099,none,0.047817233,mp-1177540,Li3V3P8O29,none,P1
4100,fcc,0.04783442,mp-762842,Li6FeNi9O20,0.087,P-1
4101,fcc,0.047844079,mp-773501,Li3MnV2O6,0.042,C2/m
4102,fcc,0.047848859,mp-772577,Li3Ni3SbO8,0.084,R-3m
4103,none,0.047855752,mp-26513,LiCuPO4,none,R3
4104,none,0.047861301,mp-505131,LiVCuO4,none,Imma
4105,none,0.047874734,mp-1040044,LiHfMg30O31,none,Pmm2
4106,none,0.047890786,mp-704204,Li2MoP4O13,none,P-1
4107,none,0.04790718,mp-761335,Li4V(PO4)2,none,P2_1/c
4108,none,0.047908916,mp-764076,Li3V3P8O29,none,P1
4109,fcc,0.047928852,mp-1173973,Li5Mn2CoO8,0.049,C2/m
4110,fcc,0.047932633,mp-763322,Li4CoO4,0.11,Pc
4111,hcp,0.047933777,mp-770663,Li2FeBO4,0.124,Pmn2_1
4112,none,0.047938322,mp-690866,LiMnPO4,none,P2_1
4113,none,0.0479405,mp-1177108,Li5Fe4(Si3O10)2,none,P1
4114,none,0.047948126,mp-540075,Li4MoP2O9,none,C2/m
4115,none,0.047990168,mp-756188,LiCu3O4,none,C2/c
4116,none,0.047997054,mp-766457,LiSnP2O7,none,P-1
4117,hcp,0.04799965,mp-767996,Li3Fe2(SiO4)2,0.123,P1
4118,none,0.048012877,mp-759346,LiCuPO4,none,Cc
4119,none,0.048024252,mp-759938,Li2Cu3(P2O7)2,none,P-1
4120,fcc,0.048030592,mp-762054,Li2NbCo3O8,0,P4_332
4121,fcc,0.048042387,mp-772741,Li2Mn3SnO8,0.077,R-3m
4122,fcc,0.048069491,mp-776671,Li2TiNi2O5,0.036,C2/c
4123,none,0.048073408,mp-766732,Li4V3P8O29,none,Cc
4124,none,0.04807498,mp-850918,Li2Mn5(PO4)4,none,P-1
4125,fcc,0.048083026,mp-1177928,Li2MgCo3O8,0.093,C2/m
4126,fcc,0.048087916,mp-770971,Li2VCoO4,0,P-1
4127,none,0.048097195,mp-772421,KLi2FeO3,none,Cc
4128,fcc,0.048101906,mp-763033,Li2Fe3CoO8,0.075,C2/m
4129,fcc,0.048110376,mp-763770,Li3Fe2Co3O10,0.098,Pm
4130,none,0.048111178,mp-764678,LiFe2(BO3)2,none,P1
4131,none,0.048119766,mp-762568,Li2Mn(PO4)2,none,P-1
4132,fcc,0.048125146,mp-1173979,Li5Mn2CoO8,0.044,C2/m
4133,none,0.048146443,mp-687229,Li2Mo(PO3)8,none,P1
4134,none,0.048147988,mp-26851,Li2CuPO4,none,Pm
4135,none,0.04816713,mp-26389,LiNb2(PO4)3,none,P2_1/c
4136,none,0.04817179,mp-769424,Li5Fe6(BO3)6,none,Cm
4137,none,0.048185876,mp-765758,Li3MnFe3O8,none,P6_3mc
4138,none,0.048205355,mp-762874,Li4Cr2Si4O13,none,Pna2_1
4139,hcp,0.048230219,mp-763688,Li7FeO6,0.108,R3
4140,none,0.048239816,mp-761304,Li3Fe(BO2)5,none,P-1
4141,none,0.048251492,mp-1177335,Li4V3P8O29,none,P1
4142,fcc,0.04825793,mp-774305,LiCo2NiO6,0.098,P-1
4143,none,0.048259177,mp-764121,Li3V3P8O29,none,P1
4144,fcc,0.048271772,mp-762971,Li2V3O6,0.072,C2/m
4145,none,0.048272564,mp-764070,Li3V3P8O29,none,P1
4146,none,0.048274933,mp-756553,Li5Cu3(SbO5)2,none,P-1
4147,none,0.048278586,mp-765976,Li3V3P8O29,none,P1
4148,none,0.048291396,mp-1177676,Li3V3P8O29,none,P1
4149,none,0.048298877,mp-540477,Li2Mn(PO3)4,none,P-1
4150,none,0.048300947,mp-766657,Li4V3P8O29,none,P1
4151,hcp,0.048306458,mp-767850,LiFeSiO4,0.151,Pna2_1
4152,none,0.048309277,mp-763769,Li2Fe(PO3)4,none,P-1
4153,fcc,0.048315049,mp-768084,Li8V11O22,0.066,P-1
4154,none,0.048318412,mp-27064,LiCuPO4,none,Pc
4155,none,0.048319137,mp-767443,Li2Mn5Si5O16,none,P1
4156,none,0.048342504,mp-762967,Li4V3P8O29,none,C2/c
4157,none,0.048347703,mp-770876,Li3Ni(BO3)2,none,P-1
4158,none,0.048353636,mp-763272,Li4V3P8O29,none,P1
4159,none,0.048368346,mp-1176784,LiCo2(PO4)2,none,Pc
4160,none,0.048381891,mp-762837,LiFeSiO4,none,P6_422
4161,none,0.048385453,mp-766747,Li6Ni9(PO4)8,none,P-1
4162,none,0.048394708,mp-764643,Li5Fe8(BO3)8,none,P1
4163,none,0.048414945,mp-1177208,Li4V3P8O29,none,P1
4164,none,0.048421675,mp-765143,Li2NiP2O7,none,C2/c
4165,none,0.048438206,mp-763606,Li3P3(WO6)2,none,P2_1/c
4166,none,0.048441328,mp-863877,Li4V3P8O29,none,P1
4167,none,0.048461935,mp-762864,Li3Mn2(PO4)3,none,P2/c
4168,none,0.048468045,mp-673126,LiSb(PO3)4,none,P2_1
4169,none,0.04848072,mp-1177526,Li3V3P8O29,none,P1
4170,none,0.048482837,mp-770757,Li2MnFe3O8,none,P6_3mc
4171,fcc,0.048484868,mp-769566,Li5Fe2Co3O10,0.052,Pm
4172,none,0.048489052,mp-585408,Li3Sn2(PO4)3,none,R-3
4173,none,0.048507153,mp-764071,Li3V3P8O29,none,P1
4174,fcc,0.048510314,mp-1174008,Li3Mn2O5,0.066,P-1
4175,none,0.048515169,mp-31575,LiCo2P5O16,none,Pc
4176,none,0.048531033,mp-763442,LiP4WO12,none,C2/c
4177,fcc,0.048537054,mp-1177501,Li3Zn2Fe19O32,0.046,Cm
4178,fcc,0.048542707,mp-780017,Li3Cr2(FeO4)2,0,C2/m
4179,none,0.048555192,mp-1211147,LiPr(MoO4)2,none,P2/c
4180,fcc,0.048561754,mp-1222378,LiTiFeO4,0.055,Cm
4181,none,0.048565187,mp-776637,Li3P3(WO6)2,none,P2_1/c
4182,none,0.048565563,mp-769411,Li6B3SbO9,none,P2_1/c
4183,none,0.048588448,mp-849560,Li5Fe4(P2O7)4,none,P1
4184,fcc,0.048594093,mp-850093,Li2VCr2O6,0.066,C2/m
4185,fcc,0.048623505,mp-694887,Li9Mn22O48,0.08,Cm
4186,none,0.048626002,mp-764117,Li3V3P8O29,none,P1
4187,none,0.04863461,mp-765448,LiCoPO4,none,Pc
4188,fcc,0.048634948,mp-762588,Li4Mn2Ni5O12,0.055,P2_1
4189,none,0.04866335,mp-1178139,KLi2FeO3,none,Pnma
4190,none,0.048667699,mp-777968,Li5Ni2(PO4)3,none,P2_1
4191,none,0.048679941,mp-764073,Li3V3P8O29,none,P1
4192,none,0.048683115,mp-777255,LiFeBO3,none,P-6
4193,fcc,0.048700143,mp-1177761,Li3Fe2(CoO4)2,0.057,C2/m
4194,none,0.048734163,mp-1177222,Li4V3P8O29,none,P1
4195,fcc,0.048789715,mp-1174003,Li5Co3O8,0.065,C2/m
4196,fcc,0.048797993,mp-763675,Li4Fe7O12,0.04,P2_1
4197,none,0.048818954,mp-780512,Li2Mn3(BO3)3,none,P-1
4198,none,0.048833216,mp-761333,Li2CrSiO4,none,P3_121
4199,none,0.04884098,mp-1177400,Li4V3P8O29,none,P1
4200,none,0.048843944,mp-540469,Li2Co3(P2O7)2,none,P-1
4201,fcc,0.048850481,mp-1178121,Li(Fe2O3)4,0,P-1
4202,fcc,0.048858088,mp-773359,Li2VCoO4,0.04,Imma
4203,none,0.048877678,mp-1177184,Li4V3P8O29,none,P1
4204,none,0.048892118,mp-1177157,Li5Mn4(P2O7)4,none,P1
4205,none,0.048893595,mp-765882,LiNi(PO3)3,none,P-1
4206,none,0.048905788,mp-765021,Li2V3(P2O7)2,none,P-1
4207,none,0.048932365,mp-764032,Li3V3P8O29,none,P1
4208,none,0.048936301,mp-771451,Li5Mn2Cu3O10,none,P-1
4209,none,0.048939525,mp-849447,Li3V3P8O29,none,P1
4210,none,0.04894064,mp-853195,Li2Mn3(BO3)3,none,P1
4211,none,0.048942737,mp-861470,LiMnPO4,none,Pc
4212,none,0.048972327,mp-850980,Li2Mn3(BO3)3,none,P1
4213,fcc,0.048995078,mp-773162,Li3Fe2SnO6,0.014,C2/m
4214,none,0.048999292,mp-766655,Li4V3P8O29,none,P1
4215,none,0.049001045,mp-760165,LiCu2(PO3)5,none,Pc
4216,none,0.049023674,mp-761577,Li7Mn4P9O32,none,P-42_1c
4217,none,0.049026858,mp-769985,LiCrB2O5,none,P2_1/c
4218,fcc,0.049027867,mp-769796,Li3Fe4NiO8,0,C2/m
4219,none,0.049028172,mp-763367,LiP2WO7,none,P-1
4220,none,0.049028653,mp-766648,Li4V3P8O29,none,P1
4221,fcc,0.049041148,mp-1173945,Li3Mn2O5,0.064,C2/m
4222,none,0.049041373,mp-868572,Li6TiFe5O12,none,C2
4223,none,0.049047945,mp-540479,Li2V(PO4)2,none,Pc
4224,none,0.049048134,mp-853269,Li5Fe4(P2O7)4,none,P1
4225,hcp,0.049049705,mp-760093,LiTi8O16,0.133,Cmc2_1
4226,none,0.049050142,mp-775500,Li11V12(CuO4)12,none,C2/m
4227,none,0.049061427,mp-31560,Li2Co(PO3)4,none,P2_1/c
4228,fcc,0.049063486,mp-1177804,Li2VCoO4,0.059,P1
4229,none,0.049069019,mp-771395,Li3Co4(BO3)4,none,Pc
4230,none,0.049071168,mp-758624,LiCuPO4,none,Pca2_1
4231,none,0.049078665,mp-863871,Li3V3P8O29,none,P1
4232,none,0.049087851,mp-1177173,Li5Mn4(P2O7)4,none,P1
4233,none,0.049089884,mp-771933,Li2Mn2SnO6,none,Cmce
4234,none,0.049092029,mp-1174186,Li4Mn3CoO8,none,C2/m
4235,fcc,0.049107557,mp-771496,Li2V3WO8,0.068,R-3m
4236,none,0.049110749,mp-31739,Li2CrP4O13,none,P-1
4237,none,0.049118949,mp-1176656,LiMn2O4,none,P-1
4238,fcc,0.049131521,mp-1178039,Li2CeO3,0.053,C2/c
4239,none,0.049134303,mp-761453,Li5FeP3O11,none,P-1
4240,none,0.049174557,mp-764570,LiFe2(BO3)2,none,P1
4241,hcp,0.04917794,mp-8425,Li8TbO6,0.013,R-3
4242,none,0.049178344,mp-35822,Li4SiO4,none,P1
4243,none,0.049194815,mp-861575,Li3V(BO3)2,none,P-1
4244,none,0.049203735,mp-763060,LiCoPO4,none,Pna2_1
4245,none,0.049211956,mp-1177214,Li4V3P8O29,none,P1
4246,none,0.049217685,mp-861841,Li3V3P8O29,none,P1
4247,none,0.049219178,mp-772402,Li4Mn5Cr3O16,none,Cm
4248,fcc,0.049231635,mp-771996,Li3Mg2Fe19O32,0.018,Cm
4249,fcc,0.049300256,mp-1222532,Li7(SnO3)4,0.065,C2
4250,none,0.049307383,mp-770885,Li3FeO3,none,P2_1/c
4251,fcc,0.049329594,mp-1178044,Li2Cr3NiO8,0.072,P4_3
4252,none,0.04933857,mp-25606,LiNiO2,none,C2/m
4253,fcc,0.049341282,mp-753783,Li5InO4,0.04,Pmmn
4254,none,0.049359312,mp-1175351,Li7Mn5O12,none,P-1
4255,none,0.049363988,mp-769737,LiAlVO4,none,Pnma
4256,fcc,0.049380478,mp-1174049,Li5Mn2CoO8,0.049,C2/m
4257,none,0.049380646,mp-762846,Li3Fe2(PO4)3,none,C2
4258,none,0.049382015,mp-1176893,Li7V4(PO4)6,none,P1
4259,none,0.049391204,mp-774793,LiLa8Cu3O16,none,P1
4260,none,0.049424921,mp-764784,LiFeSiO4,none,Cc
4261,none,0.049438731,mp-762404,LiMn3O6,none,Cc
4262,fcc,0.049442074,mp-774424,LiMnVO4,0.103,P4_322
4263,none,0.049445288,mp-1177185,Li5Fe3O8,none,P2_1
4264,none,0.049456958,mp-759767,LiCu(PO3)3,none,Pbcm
4265,none,0.049462821,mp-762963,Li4V3P8O29,none,Cc
4266,none,0.049464413,mp-765678,Li3TiV3O8,none,P6_3mc
4267,none,0.049469025,mp-865198,LiCoPO4,none,P6_3
4268,none,0.049474642,mp-850396,Li2Mn3(BO3)3,none,P-1
4269,none,0.049487192,mp-675692,LiTi2O4,none,C2
4270,none,0.049489469,mp-767053,Li2Co(CO3)2,none,P1
4271,none,0.049497319,mp-32092,LiMoPO5,none,Pna2_1
4272,fcc,0.049497352,mp-1174267,Li4Mn3CoO8,0.042,C2/m
4273,none,0.049497449,mp-771537,Li7Cr3(WO8)2,none,Cm
4274,fcc,0.04951902,mp-762805,Li4Mn5(FeO6)2,0.086,P2_1
4275,none,0.049523292,mp-850965,Li2Mn3(BO3)3,none,P-1
4276,none,0.049530308,mp-770671,Li4Cr5Sn3O16,none,Cm
4277,none,0.049535305,mp-770511,LiMn3O5,none,Pbam
4278,none,0.049565285,mp-1173959,Li3Mn2CoO6,none,P-1
4279,none,0.049576294,mp-762283,LiCo(CO3)2,none,P2_1/c
4280,none,0.049599961,mp-775322,Li5Fe8(BO3)8,none,P1
4281,none,0.049604441,mp-773457,Li9Fe3(WO4)7,none,R3m
4282,none,0.049606041,mp-758797,LiCu(PO3)3,none,P-1
4283,none,0.049613955,mp-759926,Li2Ti(BO3)2,none,P2_1/c
4284,fcc,0.049614989,mp-1222585,LiCr(FeO2)4,0,C2/m
4285,none,0.049617949,mp-1177194,Li4V3P8O29,none,P1
4286,none,0.049622904,mp-763266,Li2CrO4,none,P-1
4287,none,0.049629018,mp-1177459,Li4CrP2O9,none,P2/c
4288,none,0.049639461,mp-853208,Li4V3P8O29,none,P1
4289,none,0.049646516,mp-780216,Li5Fe3O8,none,P1
4290,none,0.049650985,mp-762393,Li2Cr(Si2O5)2,none,P-1
4291,fcc,0.049655003,mp-780259,Li5LaO4,0.102,P4_2/nmc
4292,none,0.049670474,mp-763717,LiV2(CO3)4,none,P-1
4293,fcc,0.049677869,mp-763412,Li4Co13O28,0.101,P1
4294,none,0.049694183,mp-762485,Li2FeP2O7,none,P-1
4295,fcc,0.049708313,mp-1174170,Li4Mn3CoO8,0.043,P2/m
4296,none,0.04971428,mp-772554,Li4Nb3V5O16,none,Cm
4297,none,0.049716436,mp-767726,Li2Fe2Si3O10,none,P1
4298,none,0.049719328,mp-770168,Li5Mn2(PO4)3,none,P1
4299,none,0.049723371,mp-761658,Li2CoP2O7,none,P-1
4300,fcc,0.049723815,mp-757395,Li11(RuO3)8,0.075,P1
4301,fcc,0.049730256,mp-770877,Li3Cr3NiO8,0.061,R-3m
4302,none,0.04976124,mp-775301,LiV(Si2O5)3,none,Cmce
4303,none,0.049763015,mp-851000,Li9Mn7Cr12O48,none,P1
4304,fcc,0.049771614,mp-1174209,Li4Mn3CoO8,0,P2/m
4305,fcc,0.049774998,mp-1174175,Li4Mn3CoO8,0.042,C2/m
4306,none,0.049786769,mp-861539,Li4Ni7(PO4)6,none,Cm
4307,none,0.049788995,mp-762200,LiP2WO7,none,P2_1/c
4308,fcc,0.049796978,mp-779065,Li2Mn2CoO6,0.067,P-1
4309,none,0.049813721,mp-757663,LiSn(PO3)4,none,P-1
4310,fcc,0.049814822,mp-1177874,Li2Ni3WO8,0.077,P4_32_12
4311,none,0.049814991,mp-1177320,Li4V3P8O29,none,C2
4312,none,0.049816129,mp-780109,Li4Cr5(P3O11)2,none,P2_1/c
4313,none,0.049820558,mp-779829,Li9Cr2(H9O7)3,none,P-1
4314,none,0.049848971,mp-761648,LiNi(PO3)3,none,P-1
4315,fcc,0.049860815,mp-1174153,Li5Co3O8,0.048,P-1
4316,none,0.04987845,mp-1177190,Li4V3P8O29,none,P1