,anion_type,e_above_hull,mp_id,pretty_formula,rms,spacegroup.symbol
2791,fcc,0.033157514,mp-775739,LiMn28O56,0.08,R3
2792,none,0.033162453,mp-32502,LiV(PO3)4,none,C2/m
2793,none,0.033168464,mp-762979,Li5V3P8O29,none,P1
2794,none,0.033178546,mp-1100483,Li9Mn7O16,none,P2/m
2795,none,0.033183374,mp-772319,Li4Co3Ni5O16,none,Cm
2796,none,0.033225003,mp-771921,LiNiO2,none,P-1
2797,none,0.033232592,mp-762957,Li5V3P8O29,none,Cc
2798,fcc,0.033238842,mp-769741,Li4Cr3CoO8,0.044,P2/m
2799,none,0.033245357,mp-779226,Li5Mn6(BO3)6,none,Cm
2800,none,0.033280136,mp-504385,Li3Fe2(PO4)3,none,P2/c
2801,none,0.033285857,mp-777630,Li2CrP2O7,none,P2_1
2802,fcc,0.033322968,mp-1177719,Li3V5O8,0,R-3m
2803,none,0.033328034,mp-1100510,Li9Mn7O16,none,P-1
2804,none,0.033337454,mp-777480,Li2Ti3MnO8,none,P6_3mc
2805,fcc,0.033340047,mp-771459,Li4CrNi3O8,0,R-3m
2806,fcc,0.033344915,mp-1175332,Li7Mn5O12,0,P-1
2807,none,0.033349032,mp-767561,Li3Mn4(PO4)6,none,P1
2808,none,0.033357828,mp-779341,Li3Mn4(BO3)4,none,P1
2809,fcc,0.033367735,mp-770486,Li3Ni2SnO6,0,C2/m
2810,fcc,0.033384955,mp-36240,LiMn8O16,0.083,Pmmn
2811,none,0.033387911,mp-705333,LiMo(PO4)2,none,P2_12_12_1
2812,none,0.033408622,mp-773442,K2Li3MnO4,none,P2_1/c
2813,fcc,0.033416255,mp-1173883,Li2CoO3,0.069,P-1
2814,none,0.033443538,mp-1222420,LiFe4(PO4)4,none,Imm2
2815,hcp,0.033471172,mp-552588,LiNbO3,0.091,R-3c
2816,none,0.033476132,mp-780182,Li3Mn4(BO3)4,none,P1
2817,none,0.033519204,mp-780180,Li3Mn4(BO3)4,none,P1
2818,none,0.033525125,mp-1100493,Li9Mn7O16,none,C2/m
2819,fcc,0.033536411,mp-34650,LiMn3O4,0,C2/m
2820,fcc,0.033540965,mp-1175328,Li7Mn5O12,0.048,P-1
2821,fcc,0.033542656,mp-1174498,Li5Mn3O8,0.047,C2/m
2822,hcp,0.033550525,mp-779046,Li5Cu(PO4)2,0.12,Pc
2823,none,0.03355114,mp-774179,Li5V3P8O29,none,P1
2824,fcc,0.033556812,mp-765299,Li2NbFe3O8,0,P4_332
2825,none,0.033572282,mp-1178001,Li2CrO2,none,Immm
2826,none,0.033572667,mp-1177086,Li5V3P8O29,none,P1
2827,fcc,0.033590341,mp-1100487,Li9Mn7O16,0.049,C2/m
2828,none,0.033596872,mp-850465,Li3Mn2(P2O7)2,none,P1
2829,fcc,0.033602756,mp-1223041,Li11(MoO2)12,0.038,P-1
2830,none,0.033608054,mp-762297,Li5V3P8O29,none,P1
2831,none,0.033610384,mp-1177430,Li4Fe2(PO4)3,none,P-1
2832,fcc,0.033636788,mp-1173887,Li2CoO3,0.068,P-1
2833,none,0.033652672,mp-32384,Li4Ni7(PO4)6,none,Cm
2834,none,0.033654094,mp-1178148,KLi(WO3)3,none,P1
2835,none,0.033659703,mp-771523,LiCr2O4,none,Cc
2836,fcc,0.033669548,mp-762635,Li3Mn3NiO8,0.048,P-1
2837,none,0.033674158,mp-868421,Li6CoNi5O12,none,P-1
2838,fcc,0.0336922,mp-766767,Li5Co2Ni5O12,0.051,C2
2839,fcc,0.033705772,mp-776741,Li2Mn3SbO8,0.072,P4_332
2840,none,0.033723364,mp-684508,LiSb2(PO4)3,none,P2_1/c
2841,none,0.033731538,mp-697726,Li2CoP2O7,none,P-1
2842,fcc,0.033738018,mp-694894,LiMn12O24,0.082,P2/c
2843,fcc,0.033741038,mp-774753,Li5GaO4,0.088,Pbca
2844,none,0.033742102,mp-540248,LiNiPO4,none,Pna2_1
2845,none,0.033742493,mp-1211045,LiGd2RuO6,none,P2_1/c
2846,none,0.033761649,mp-774190,Li5V3P8O29,none,P1
2847,none,0.033771942,mp-1177180,Li5V3P8O29,none,P1
2848,none,0.033782804,mp-765137,Li5V3P8O29,none,P1
2849,none,0.033784698,mp-1177089,Li5V3P8O29,none,P1
2850,none,0.033803393,mp-676365,Li2TiO3,none,C2/c
2851,fcc,0.033816069,mp-770852,Li2TiNi2O5,0.048,C2
2852,none,0.03383074,mp-540255,LiNiPO4,none,P2_1/c
2853,hcp,0.033833377,mp-767498,Li10Ti11Nb6O42,0.096,P3
2854,none,0.03383348,mp-775505,Li5V3P8O29,none,P1
2855,fcc,0.033840371,mp-772689,Li2Fe3CuO8,0.066,R-3m
2856,none,0.033861083,mp-762956,Li5V3P8O29,none,Cc
2857,fcc,0.033863345,mp-775518,Li5Ti6FeO16,0.074,Pm
2858,fcc,0.033880319,mp-770960,Li3TiV3O8,0.054,R-3m
2859,none,0.033899089,mp-1177087,Li5Ni6(P2O7)4,none,P-1
2860,none,0.033918934,mp-26311,Li5Cu(PO4)2,none,Pc
2861,fcc,0.033921654,mp-997525,Li4Co15O28,0.098,P-1
2862,none,0.033945527,mp-772523,Ba8LiTa7O24,none,P3m1
2863,none,0.033950939,mp-765262,Li3Cr(BO3)2,none,P2_1/c
2864,none,0.033951212,mp-1177664,Li3Mn2(P2O7)2,none,P1
2865,none,0.033954134,mp-705448,LiNiPO4,none,Cc
2866,none,0.033960535,mp-1175184,Li7Mn4CoO12,none,P1
2867,none,0.033969092,mp-540375,LiCoP2O7,none,P2_1/c
2868,none,0.033976371,mp-777093,LiMnP2O7,none,P2_1/c
2869,fcc,0.033978359,mp-770866,LiMn5O8,0.079,P4_332
2870,none,0.033979732,mp-762984,Li5V3P8O29,none,P1
2871,fcc,0.033994594,mp-769583,Li3VCr3O8,0.064,P1
2872,none,0.033999839,mp-1177165,Li5V3P8O29,none,P1
2873,fcc,0.034033461,mp-773344,Li2CrCuO4,0,Imma
2874,none,0.034038975,mp-775382,Li5V3P8O29,none,P1
2875,none,0.034041995,mp-705357,LiMnP2O7,none,P2_1/c
2876,none,0.034050251,mp-25587,LiNiO2,none,Cm
2877,none,0.034054474,mp-540331,LiMn(PO3)4,none,C2/m
2878,fcc,0.034057061,mp-1174826,Li6Mn3CoO10,0.069,C2
2879,none,0.034060252,mp-705332,LiCoP2O7,none,P2_1/c
2880,none,0.034065276,mp-705362,Li2Co(PO3)5,none,P2_1/m
2881,fcc,0.03408402,mp-769644,LiAlVO4,0.078,Imma
2882,none,0.034097519,mp-540032,Li4Mn5(P3O11)2,none,P2_1/c
2883,fcc,0.034111662,mp-771056,Li7Ti5Mn12O32,0.083,P1
2884,none,0.034111991,mp-1177998,Li2FeSiO4,none,P2_1
2885,none,0.034125294,mp-764416,Li4Mn2(PO4)3,none,P2_1/c
2886,none,0.034135478,mp-780850,Li3Mn4(BO3)4,none,P-1
2887,none,0.034136701,mp-775069,Li5Cu2Ni3O10,none,P-1
2888,none,0.034144092,mp-1177046,Li5V3P8O29,none,P1
2889,none,0.034146137,mp-1177088,Li5V3P8O29,none,P1
2890,none,0.034152916,mp-761402,Li2Fe5(Si2O7)2,none,P-1
2891,none,0.034163253,mp-697757,LiCr2(PO4)3,none,Cc
2892,none,0.034168317,mp-705336,Li2Co3(P2O7)2,none,P-1
2893,none,0.034168785,mp-761381,Li2Mn5(Si2O7)2,none,P-1
2894,none,0.034176723,mp-764888,Li3Fe4(BO3)4,none,P1
2895,fcc,0.034182483,mp-1174351,Li4Mn3O7,0.067,C2/m
2896,none,0.034187459,mp-1177075,Li5V3P8O29,none,P1
2897,none,0.034193328,mp-555910,Li2Yb5B3O13,none,P2_1/m
2898,none,0.034204396,mp-766628,Li5V3P8O29,none,P1
2899,none,0.03421193,mp-850069,Li3Mn4(BO3)4,none,P1
2900,none,0.034252609,mp-996961,LiAuO2,none,C2/c
2901,none,0.034271038,mp-1100479,Li9Mn7O16,none,P2/m
2902,none,0.034288533,mp-775381,Li5V3P8O29,none,P1
2903,fcc,0.034289586,mp-853186,Li35(FeO4)8,0.112,P1
2904,none,0.034304487,mp-765148,Li5V3P8O29,none,P-1
2905,fcc,0.034342123,mp-772253,Li3Cr(NiO2)4,0,C2/m
2906,fcc,0.0343441,mp-1100477,Li9Mn7O16,0,P2/m
2907,fcc,0.034381012,mp-1175169,Li7Mn4CoO12,0.067,P-1
2908,none,0.034410446,mp-540461,LiV(PO3)4,none,C2/c
2909,none,0.034414515,mp-1177092,Li5V3P8O29,none,P1
2910,none,0.034415621,mp-765915,LiFe(SiO3)2,none,P1
2911,none,0.03445187,mp-771465,Li4Ti5Ni3O16,none,Cm
2912,none,0.034453383,mp-771366,LiMn2(PO4)2,none,P-1
2913,none,0.03446527,mp-863906,LiNi4(PO4)3,none,P-1
2914,none,0.03448232,mp-1177065,Li5V3P8O29,none,P1
2915,hcp,0.034490723,mp-777225,Li4Fe(WO4)3,0.094,P1
2916,none,0.034492345,mp-1177080,Li5V3P8O29,none,P1
2917,none,0.034503259,mp-764504,Li3Fe4(BO3)4,none,Pc
2918,fcc,0.034510821,mp-770710,Li3Mn7O16,0.076,R3m
2919,fcc,0.034519975,mp-764999,Li2(CoO2)3,0.08,C2/m
2920,fcc,0.03452002,mp-763752,Li3Mn2(NiO4)2,0.09,P-1
2921,none,0.03452885,mp-851057,Li5V3P8O29,none,P1
2922,none,0.0345359,mp-1177062,Li5V3P8O29,none,P1
2923,none,0.034543037,mp-769775,Li2Cr2O7,none,P-1
2924,none,0.034549129,mp-705431,Li6Fe5(P2O7)4,none,P-1
2925,fcc,0.03458031,mp-1100533,Li9Mn7O16,0,P-1
2926,none,0.03459995,mp-26725,LiSnPO4,none,P31c
2927,fcc,0.034607295,mp-762391,Li2(NiO2)3,0.072,C2/m
2928,none,0.034607838,mp-774231,LiFeB2O5,none,C2/c
2929,fcc,0.034620452,mp-1177445,Li4Cr3CoO8,0,R-3m
2930,fcc,0.034621252,mp-764019,Li2TiNiO4,0.033,Imma
2931,fcc,0.034622671,mp-1175321,Li7Mn5O12,0.045,P-1
2932,fcc,0.034631748,mp-768023,LiV3Zn2O8,0.056,R-3m
2933,none,0.034643904,mp-540431,Li2Fe5(PO4)4,none,P-1
2934,none,0.034646576,mp-778832,Li3Mn4(BO3)4,none,P1
2935,fcc,0.034649055,mp-758089,Li2Ti3O6,0,Fddd
2936,fcc,0.034649331,mp-1176651,LiMn6O12,0.102,P1
2937,hcp,0.0346619,mp-619802,LiNbWO6,0.131,P-42_1m
2938,none,0.034683279,mp-1177077,Li5V3P8O29,none,P1
2939,none,0.034685096,mp-769847,Li(CoO2)2,none,Pmmn
2940,none,0.034705528,mp-1177084,Li5V3P8O29,none,P1
2941,none,0.034741921,mp-772147,LiNb7O12,none,P2_1/c
2942,fcc,0.034751376,mp-768056,LiMn10O20,0.082,I4_1/a
2943,none,0.0347634,mp-1177073,Li5V3P8O29,none,P1
2944,none,0.034773969,mp-868646,Li4V5Sn3O16,none,P1
2945,none,0.03478072,mp-705381,LiFe3P4O15,none,Pc
2946,none,0.034801641,mp-778856,Li3Mn4(BO3)4,none,P1
2947,fcc,0.034820723,mp-771099,Li3Mn4SnO8,0,C2/m
2948,fcc,0.034825787,mp-775027,Li2Mn3CoO8,0.078,R3m
2949,fcc,0.034831578,mp-773233,Li5V2Fe3O10,0.047,P-1
2950,none,0.034840166,mp-763455,LiP4WO12,none,P2_1
2951,none,0.034855612,mp-850475,Li3Mn2(P2O7)2,none,P-1
2952,none,0.034861012,mp-763473,Li2FeCo9O20,none,P-1
2953,fcc,0.034866115,mp-1045516,Li(NiO2)2,0.084,P2/m
2954,fcc,0.034873047,mp-636380,Li(MoO2)2,0.057,Imma
2955,none,0.03489154,mp-766115,LiCrO2,none,P6_3mc
2956,fcc,0.034892915,mp-765750,Li5Cr2Fe3O10,0.046,P-1
2957,none,0.034893577,mp-774079,Li5V3P8O29,none,P1
2958,none,0.034929505,mp-761322,LiNiBO3,none,P-1
2959,none,0.034940894,mp-765083,Li5V3P8O29,none,P1
2960,none,0.034945798,mp-1177067,Li5V3P8O29,none,P1
2961,none,0.03498895,mp-540216,LiFeP2O7,none,P1
2962,none,0.035014452,mp-775385,Li5V3P8O29,none,P1
2963,none,0.03503905,mp-1177055,Li5V3P8O29,none,P1
2964,none,0.03504545,mp-31938,Li3Mn2(PO4)3,none,R-3
2965,fcc,0.035047508,mp-1175153,Li7Mn4CoO12,0.064,P-1
2966,fcc,0.035050258,mp-861490,Li5Mn2Co3O10,0.061,P1
2967,none,0.035054936,mp-26701,Li3Sn2(PO4)3,none,P2_1/c
2968,none,0.035058478,mp-1177181,Li5V3P8O29,none,P1
2969,hcp,0.035067805,mp-756793,Li2Nb4ZnO12,0.093,P1
2970,none,0.035080738,mp-765213,Li5V3P8O29,none,P1
2971,hcp,0.035086248,mp-757527,LiTi6O12,0.123,Pc
2972,fcc,0.035087052,mp-1177858,Li2TiCoO4,0.036,P2/m
2973,none,0.03508778,mp-1174359,Li4Mn3O7,none,C2/m
2974,none,0.035094721,mp-774118,Li5V3P8O29,none,P1
2975,none,0.035097609,mp-772588,Li2V5B3O13,none,P2_1/m
2976,none,0.035100748,mp-1100485,Li9Mn7O16,none,C2/m
2977,none,0.035136413,mp-1177053,Li5V3P8O29,none,P1
2978,none,0.035142489,mp-861172,LiFe(SiO3)2,none,P-1
2979,none,0.035147578,mp-673059,LiSbP2O7,none,P2_1/c
2980,none,0.035173522,mp-761459,LiFeSi3O8,none,P-1
2981,none,0.035185853,mp-24149,LiCe2HO3,none,Immm
2982,none,0.035189799,mp-1100512,Li9Mn7O16,none,P-1
2983,hcp,0.035190053,mp-765985,Li5Ti12O24,0.099,Pm
2984,fcc,0.035195034,mp-1175230,Li7Mn4CoO12,0.061,P1
2985,none,0.035198789,mp-769908,Li2Mn3CoO8,none,P6_3mc
2986,fcc,0.03525826,mp-25385,Li(CuO2)2,0,Fd-3m
2987,hcp,0.035278808,mp-764344,Li2FeSiO4,0.098,P2_1
2988,fcc,0.03528946,mp-769874,Li2TiVO4,0.049,I-4m2
2989,none,0.035294014,mp-1100511,Li9Mn7O16,none,P-1
2990,fcc,0.035300936,mp-1222456,LiRuRhO4,0.032,Imma
2991,none,0.035311006,mp-1222553,LiAlSiO4,none,P2
2992,none,0.035320077,mp-1177735,Li3Fe2(P2O7)2,none,P1
2993,none,0.035345459,mp-756936,Sr3Li4La5O12,none,Pm
2994,none,0.03536326,mp-767511,Ba4Li6Ti19O44,none,P1
2995,fcc,0.03537422,mp-1100521,Li9Mn7O16,0,P-1
2996,fcc,0.035386695,mp-19394,LiV2O4,0,Fd-3m
2997,fcc,0.035387609,mp-1195443,LiMn4O8,0.08,P2_13
2998,hcp,0.03542035,mp-765505,Li4Fe2O5,0.081,P2_1/c
2999,none,0.035431677,mp-775983,Li6WO6,none,R-3
3000,hcp,0.035432884,mp-770582,Li8CrO6,0.072,R-3
3001,none,0.035459648,mp-11206,LiTi(SiO3)2,none,C2/c
3002,fcc,0.03546187,mp-1175206,Li7Mn4CoO12,0,P1
3003,none,0.035462956,mp-1177130,Li5V3P8O29,none,C2
3004,none,0.035466271,mp-778246,Li2Mn2(PO4)3,none,C2/c
3005,hcp,0.035467781,mp-767915,Li2SiNiO4,0.09,Pc
3006,fcc,0.035469288,mp-1174554,Li5Mn3O8,0.066,C2/m
3007,fcc,0.035475135,mp-762605,Li9Co13O28,0.085,P1
3008,none,0.035479295,mp-772435,Li3Al2FeO6,none,P-1
3009,none,0.035506818,mp-1176801,LiCo2(PO4)2,none,P1
3010,none,0.035533703,mp-1177475,Li4MnP2O9,none,P2/c
3011,none,0.035534386,mp-781598,Li3Mn4(BO3)4,none,P1
3012,fcc,0.035540902,mp-764746,Li5V7O12,0.039,C2
3013,fcc,0.035544371,mp-1175199,Li7Mn4CoO12,0.064,P1
3014,none,0.035554455,mp-1101538,LiMn(PO3)5,none,P2_1/c
3015,none,0.035594903,mp-1174348,Li4Mn3O7,none,P-1
3016,none,0.035601496,mp-1100508,Li9Mn7O16,none,P-1
3017,none,0.035604021,mp-772216,LiNb8O14,none,Pbam
3018,fcc,0.035612944,mp-1177832,Li3Mn28O56,0.082,C2
3019,none,0.035621423,mp-765084,Li5V3P8O29,none,P1
3020,none,0.035622705,mp-762020,LiNiPO4,none,Pna2_1
3021,none,0.03562569,mp-780102,Li2Mn3(BO3)3,none,P-1
3022,none,0.03563173,mp-780509,Li3Mn4(BO3)4,none,P1
3023,fcc,0.035678121,mp-1100501,Li9Mn7O16,0.042,P-1
3024,none,0.035687384,mp-705402,Li14Mn9(P2O7)8,none,P-1
3025,fcc,0.035704832,mp-771532,Li(NiO2)2,0.093,P-1
3026,fcc,0.03570846,mp-1174410,Li4Mn3O7,0.063,C2/m
3027,fcc,0.035709027,mp-1175265,Li7Mn4CoO12,0.064,C2
3028,hcp,0.03573359,mp-1177860,Li2SiNiO4,0.145,Pna2_1
3029,none,0.035747109,mp-1101495,LiNiP2O7,none,P2_1
3030,none,0.035756002,mp-774144,Li(WO3)2,none,Immm
3031,none,0.035769546,mp-762406,LiMn4O8,none,C2/m
3032,none,0.035773274,mp-775075,LiV3O8,none,Pm
3033,none,0.035778512,mp-851270,Li9Mn7V12O48,none,P1
3034,none,0.035794846,mp-770395,K2LiFeO3,none,Cmme
3035,none,0.035799591,mp-31604,Li2CoP2O7,none,P2_1/c
3036,none,0.035808995,mp-772049,Li2Ti2O5,none,Pbcn
3037,fcc,0.035813984,mp-761669,Li2Ti3CoO8,0.059,R3m
3038,fcc,0.035814483,mp-769805,Li5Co5(SnO6)2,0.049,C2
3039,none,0.035815958,mp-6340,LiAl(SiO3)2,none,C2/c
3040,none,0.035829385,mp-540396,Li3Fe(PO4)2,none,P2_1/c
3041,none,0.035830749,mp-762968,Li5V3P8O29,none,P1
3042,none,0.035864336,mp-540385,Li3Cr2(PO4)3,none,Ia-3d
3043,none,0.03588808,mp-769848,Li4Mn5Sb3O16,none,Cm
3044,none,0.035901572,mp-779305,Li2FeBO4,none,Pna2_1
3045,fcc,0.035927678,mp-1100506,Li9Mn7O16,0.042,P-1
3046,hcp,0.035931814,mp-37399,Li7NbO6,0.09,R3
3047,fcc,0.035932626,mp-762252,Li4V7O12,0.043,P2_1
3048,none,0.035953131,mp-770950,LiLa4MnO8,none,I4_1/amd
3049,none,0.035957208,mp-31549,Li2CoP2O7,none,P1
3050,hcp,0.035964443,mp-18915,LiCoPO4,0.115,Pnma
3051,none,0.03596598,mp-1210959,LiGd(MoO4)2,none,P2/c
3052,fcc,0.035979609,mp-768079,Li7(NiO2)11,0.084,P-1
3053,none,0.03598,mp-762289,Li2P2WO8,none,P-3
3054,none,0.036007327,mp-761705,Li2Fe4Si4O13,none,P-1
3055,none,0.036039198,mp-766630,Li5V3P8O29,none,P1
3056,none,0.036050506,mp-769845,LiLa4MnO8,none,Cmmm
3057,fcc,0.036053317,mp-1173888,Li2CoO3,0.073,C2
3058,none,0.036055697,mp-762042,LiNiPO4,none,Pca2_1
3059,none,0.036061023,mp-1177170,Li5V3P8O29,none,P1
3060,none,0.03607028,mp-780529,Li3Mn4(BO3)4,none,P-1
3061,fcc,0.036086667,mp-771201,Li3Ti(FeO2)4,0.044,C2/m
3062,none,0.036096914,mp-684503,LiSn(PO3)3,none,P2_12_12_1
3063,none,0.036101809,mp-26586,Li3Sb2P5O18,none,P1
3064,fcc,0.03611192,mp-1222338,LiTiAlO4,0.061,Imma
3065,none,0.036122943,mp-851064,Li5V3P8O29,none,C2
3066,none,0.036165942,mp-763374,LiVP2O7,none,P2_1/c
3067,none,0.036173526,mp-771198,Li5Co3(SnO5)2,none,P-1
3068,none,0.036189092,mp-775959,LiLa7(CuO7)2,none,C2/m
3069,fcc,0.03619052,mp-1175203,Li7Mn4CoO12,0.068,P1
3070,fcc,0.036196837,mp-1222642,Li2Ti3ZnO8,0.078,R3m
3071,none,0.036202205,mp-762412,Li2Mn3O6,none,C2/m
3072,none,0.036202869,mp-26823,Li2Cu3(P2O7)2,none,P2_1/c
3073,none,0.036210131,mp-760701,LiNbO3,none,C2/c
3074,none,0.036217405,mp-761456,Li2FeP2O7,none,P2_1/c
3075,none,0.036222364,mp-1177193,Li5V3P8O29,none,P1
3076,none,0.036253405,mp-585397,LiCo3P3O11,none,P2_1/c
3077,fcc,0.036281606,mp-1222484,LiMn8O16,0.078,P-4m2
3078,hcp,0.036288946,mp-776111,Li8Fe7(PO4)8,0.133,Cm
3079,none,0.036294371,mp-781957,Li3Mn4(BO3)4,none,P1
3080,none,0.03629757,mp-762652,LiFe2P3O11,none,C2
3081,none,0.036304207,mp-767251,Li2VSiO5,none,Pmc2_1
3082,none,0.036314486,mp-1173881,Li2CoO3,none,P-1
3083,none,0.036317044,mp-26745,LiSbP2O7,none,P-1
3084,none,0.036379214,mp-1177582,Li3V3P8O29,none,Cc
3085,fcc,0.036382511,mp-1175160,Li7Mn4CoO12,0,P-1
3086,none,0.036400059,mp-540438,LiMn(PO3)3,none,P-1
3087,none,0.036422854,mp-1173890,Li2CoO3,none,C2/m
3088,none,0.036428324,mp-1173988,Li3Mn2CoO6,none,C2/m
3089,fcc,0.036438766,mp-850117,LiScVO4,0.08,Imma
3090,none,0.036461357,mp-850881,Li2Mn3(BO3)3,none,P-1
3091,fcc,0.03646772,mp-762537,LiMn6O12,0.098,C2
3092,fcc,0.036491117,mp-764642,Li2CoSiO4,0.087,I-42m
3093,none,0.036510459,mp-684470,Li3Sn2P5O16,none,P2/c
3094,none,0.036511475,mp-1178076,Li2MnV3O8,none,P1
3095,none,0.036517713,mp-774433,LiMnPO5,none,Pnma
3096,none,0.036521692,mp-673071,Li2SnP2O7,none,P-1
3097,none,0.036522611,mp-769804,Li3Cr(CuO2)4,none,C2/m
3098,none,0.036534277,mp-1100486,Li9Mn7O16,none,C2/m
3099,hcp,0.036537619,mp-766834,Li7Ti16O32,0.093,Cm
3100,none,0.036537678,mp-672966,LiCu(PO3)4,none,P1
3101,none,0.036545373,mp-1177051,Li5V3P8O29,none,P1
3102,fcc,0.036551102,mp-1100488,Li9Mn7O16,0.044,C2/m
3103,fcc,0.036556911,mp-1100495,Li9Mn7O16,0,C2/m
3104,none,0.036585497,mp-861659,Li2Si3Ni3O10,none,C2/c
3105,none,0.03658884,mp-540517,LiMn5(P2O7)4,none,P-1
3106,none,0.0365955,mp-705001,LiCrP2O7,none,P2_1/c
3107,none,0.036604232,mp-673073,LiSbP2O7,none,P2_1/c
3108,none,0.036606755,mp-764474,Li5Fe8(BO3)8,none,P1
3109,fcc,0.036607914,mp-764281,Li5Ti2Co3O10,0.058,P1
3110,none,0.036622445,mp-775182,Li3Mn4(BO3)4,none,P1
3111,none,0.036636681,mp-1177169,Li5V3P8O29,none,P1
3112,none,0.03665064,mp-540381,LiCrPO4,none,C2/c
3113,fcc,0.036652998,mp-1174134,Li5Mn2CoO8,0.049,P2/m
3114,fcc,0.036662253,mp-25015,LiMn2O4,0,Fd-3m
3115,fcc,0.036683983,mp-1174768,Li6Mn3CoO10,0.067,P1
3116,none,0.036687261,mp-765088,Li5V3P8O29,none,P1
3117,none,0.036694839,mp-684477,Li2Sb(PO3)5,none,P2_1/m
3118,none,0.036699697,mp-771549,Li2Ti3VO8,none,P6_3mc
3119,hcp,0.036703454,mp-759322,Li2Nb4ZnO12,0.098,P1
3120,none,0.03671459,mp-765833,Li6Fe5NiO12,none,C2/m
3121,fcc,0.036736962,mp-1177884,Li2Ti3MnO8,0.083,R3m
3122,fcc,0.036746373,mp-35530,LiMn4O8,0,F-43m
3123,none,0.036758581,mp-774101,LiFeO2,none,P6_3mc
3124,fcc,0.036768,mp-765551,Li2MnNiO4,0.058,Imma
3125,none,0.036772826,mp-19206,LiLa4CoO8,none,Cmmm
3126,none,0.036774236,mp-764291,Li6Mn5SbO12,none,C2/m
3127,none,0.036774825,mp-765503,Li5V3P8O29,none,P1
3128,none,0.036777901,mp-868663,Li3Cr4(PO4)6,none,P1
3129,none,0.036786276,mp-556097,NaLi2(RuO2)6,none,P-3
3130,fcc,0.036790023,mp-777076,Li2TiNiO4,0.032,P2/m
3131,none,0.036796283,mp-756344,Li4ZrO4,none,Cmcm
3132,fcc,0.036798214,mp-1174387,Li4Mn3O7,0.065,C2/m
3133,fcc,0.036803669,mp-771858,LiMnO2,0.04,C2/m
3134,fcc,0.036811707,mp-762453,Li11V16O32,0.071,P1
3135,hcp,0.036835243,mp-19694,LiSbWO6,0.002,Pbcn
3136,none,0.036846194,mp-775384,Li5V3P8O29,none,P1
3137,none,0.03685403,mp-31571,LiCoP2O7,none,P2_1/c
3138,none,0.036865045,mp-778864,Li2Mn3(PO4)3,none,C2/c
3139,none,0.036869611,mp-774177,Li5V3P8O29,none,P1
3140,none,0.036880304,mp-766649,Li5V3P8O29,none,P1
3141,none,0.036883338,mp-31600,LiCo(PO3)4,none,C2/m
3142,none,0.036888798,mp-780135,Li2Mn3(BO3)3,none,P-1
3143,fcc,0.03690201,mp-762625,Li4Mn3(NiO4)3,0.072,P-1
3144,fcc,0.036931367,mp-763955,Li4MnV3O8,0,C2/m
3145,fcc,0.036942741,mp-1222562,Li3Mn8O16,0.078,P-4m2
3146,none,0.036949602,mp-763457,LiP2WO7,none,P2_1/c
3147,none,0.036955328,mp-1178166,K2LiNbO4,none,P1
3148,none,0.036957427,mp-766714,Li3Fe(Si2O5)3,none,Cmce
3149,none,0.036961534,mp-767974,LiLa4CoO8,none,I4_1/amd
3150,fcc,0.036980076,mp-762822,Li2FeNi3O8,0.088,C2/m
3151,none,0.036994746,mp-540415,LiMnP2O7,none,P2_1/c
3152,none,0.036995106,mp-766934,Li5V3P8O29,none,P1
3153,fcc,0.036998623,mp-850945,Li47(NiO4)8,0.074,P1
3154,fcc,0.037001309,mp-1178027,Li2CoNi3O8,0.082,P-1
3155,fcc,0.037008707,mp-776115,Li2NbFe3O8,0.068,R-3m
3156,none,0.037012771,mp-769436,Li5(CoO2)8,none,P1
3157,none,0.037014181,mp-773712,Li2TiCr3O8,none,P6_3mc
3158,none,0.037015116,mp-540296,Li2Mo(PO4)2,none,P2_1
3159,hcp,0.037020113,mp-1002572,LiMnO2,0.076,Pnnm
3160,hcp,0.037037591,mp-764386,Li6Mn(FeO3)2,0.013,C2/m
3161,none,0.037067783,mp-1100507,Li9Mn7O16,none,P-1
3162,none,0.037081876,mp-762969,Li5V3P8O29,none,P1
3163,fcc,0.037082391,mp-761817,LiNbVO4,0,P4_322
3164,none,0.03708873,mp-1177186,Li5V3P8O29,none,P1
3165,none,0.037088788,mp-765398,Li2Fe2(CO3)3,none,Amm2
3166,none,0.037092394,mp-540020,LiFe4(PO4)3,none,C2/c
3167,none,0.037137289,mp-762004,LiNiPO4,none,Pc
3168,hcp,0.037170163,mp-775546,Li4Mn(WO4)3,0.102,P1
3169,none,0.03717569,mp-1176885,Li7Fe6(SiO4)6,none,P1
3170,none,0.037203502,mp-771517,Li4Mn3Cr5O16,none,Cm
3171,fcc,0.037206891,mp-775553,Li2V3CuO8,0.092,P2_12_12_1
3172,hcp,0.037224284,mp-35899,LiMoO2,0.009,Pnnm
3173,none,0.03723142,mp-772511,Li4Co3Sn5O16,none,P1