,anion_type,e_above_hull,mp_id,pretty_formula,rms,spacegroup.symbol
4317,fcc,0.049883486,mp-1174189,Li4Mn3CoO8,0.044,C2/m
4318,none,0.049884094,mp-1177191,Li4V3P8O29,none,P1
4319,none,0.049886927,mp-765725,Na3Li5Mn5O9,none,P1
4320,hcp,0.049888744,mp-1177660,Li3GdO3,0.079,P-31c
4321,none,0.049888914,mp-770641,LiMn7O12,none,I4_1/acd
4322,none,0.04989646,mp-762217,Li2P4WO13,none,P-1
4323,none,0.049905854,mp-1176762,LiMn(PO3)3,none,Cc
4324,fcc,0.04992135,mp-762761,Li4Fe2Ni5O12,0.053,P2_1
4325,none,0.049933139,mp-861091,Li5NiP3O11,none,P-1
4326,none,0.049933337,mp-762519,Li4Fe7(PO4)6,none,Cm
4327,none,0.049933573,mp-761618,LiMnPO5,none,P2_1/c
4328,fcc,0.049941625,mp-773202,Li5Mn5(SbO6)2,0.046,C2
4329,none,0.049977764,mp-510765,Li3Cu2(WO4)4,none,P1
4330,fcc,0.049977869,mp-771683,Li2TiMn3O8,0.072,R-3m
4331,none,0.049991501,mp-773197,Li2Cr4O13,none,C2/c
4332,fcc,0.049998829,mp-772463,Li3Nb(CoO2)4,0,C2/m