,anion_type,e_above_hull,mp_id,pretty_formula,rms,spacegroup.symbol
3554,fcc,0.041975926,mp-1173956,Li3Mn2CoO6,0,P-1
3555,fcc,0.041979175,mp-1100490,Li9Mn7O16,0.045,C2/m
3556,fcc,0.041997481,mp-1174216,Li4Mn3CoO8,0,P-1
3557,none,0.042000531,mp-1177725,Li3Al(FeO3)2,none,P-1
3558,fcc,0.042003377,mp-774353,Li3Ti(NiO3)2,0.04,C2/m
3559,fcc,0.042005058,mp-763296,Li12Ni11O28,0.089,P1
3560,none,0.042014202,mp-1101596,Li2FeP2O7,none,C2/c
3561,fcc,0.042019742,mp-772329,Li2Cr3NiO8,0.082,R-3m
3562,none,0.042033024,mp-764891,Li5Fe8(BO3)8,none,P1
3563,none,0.042039099,mp-763498,LiP2WO7,none,C2
3564,none,0.042069396,mp-26741,LiCu4(PO4)3,none,C2/c
3565,none,0.042069971,mp-764554,Li5Fe8(BO3)8,none,P1
3566,none,0.042071865,mp-1177407,Li4Fe5Sn3O16,none,Cm
3567,none,0.042104964,mp-773417,Li4Cr3P4O15,none,Pna2_1
3568,fcc,0.042113275,mp-764078,Li4TiMn3O8,0.079,P1
3569,none,0.042122895,mp-763370,LiP2WO8,none,P2_1/c
3570,fcc,0.042124172,mp-1173950,Li3Mn2CoO6,0.056,P-1
3571,fcc,0.042137111,mp-1177872,Li2Ni5O9,0.091,P1
3572,none,0.042139257,mp-1100476,Li9Mn7O16,none,P2/m
3573,none,0.042141516,mp-764236,Li2MnCO5,none,Pbam
3574,none,0.042145127,mp-1175344,Li7Mn5O12,none,P-1
3575,none,0.04214662,mp-773358,Li2Fe2(PO4)3,none,P-1
3576,none,0.042168928,mp-777067,Li2MnP2O7,none,P2_1
3577,none,0.042186038,mp-771202,Li4Co5SnO12,none,C2/m
3578,none,0.042200897,mp-761942,Li3V3P8O29,none,P1
3579,fcc,0.042201057,mp-1177976,Li2FeCo3O8,0.075,C2
3580,none,0.042201557,mp-687200,LiFe(PO3)5,none,P2_1/c
3581,none,0.042210038,mp-684120,LiCuP2O7,none,P2_1/c
3582,hcp,0.042222025,mp-756376,Li3Nb4ZnO12,0.08,P1
3583,none,0.042231666,mp-771998,Li4Y3FeO8,none,C222
3584,none,0.04224049,mp-761764,Li3Fe(Si2O5)3,none,Pnma
3585,none,0.042243831,mp-772278,Li2Ni2SbO6,none,Cmce
3586,fcc,0.042248796,mp-775515,Li2Ni3SnO8,0.057,R-3m
3587,none,0.042261191,mp-1100489,Li9Mn7O16,none,C2/m
3588,none,0.042279281,mp-1177118,Li5Fe8(BO3)8,none,P1
3589,none,0.042298391,mp-1045540,Li3Mn4O8,none,Cm
3590,fcc,0.042299997,mp-705640,Li20Co21O40,0.062,P1
3591,none,0.042315366,mp-764798,Li5Fe8(BO3)8,none,P1
3592,none,0.042351164,mp-540418,LiMnPO4,none,Pc
3593,none,0.042351593,mp-764123,Li3V3P8O29,none,P1
3594,none,0.042358395,mp-756854,Sr2LiNb3O10,none,C2
3595,fcc,0.042374431,mp-765047,Li(CoO2)4,0.076,R-3m
3596,none,0.04237641,mp-31979,Li2Mn(PO3)4,none,P2_1/c
3597,none,0.042429399,mp-773728,Li5V18O44,none,Pm
3598,none,0.042455539,mp-762669,LiFeP2O7,none,P2_1/c
3599,none,0.042456929,mp-781056,Li5FeO4,none,Pnnm
3600,fcc,0.042461444,mp-773995,Li5V5(FeO6)2,0.035,C2
3601,none,0.042472452,mp-774463,Li3Cr2(PO4)3,none,C2
3602,none,0.042500215,mp-851005,Li2Mn3(BO3)3,none,P1
3603,fcc,0.04250572,mp-762689,Li4Ti2Fe5O12,0.061,P2_1
3604,none,0.042510313,mp-1177393,Li4V3P8O29,none,P1
3605,none,0.042510452,mp-8412,LiCeO2,none,P2_1/c
3606,none,0.04251843,mp-849501,Li3V3P8O29,none,C2
3607,none,0.042541526,mp-1177679,Li3Fe2(SiO4)2,none,Pc
3608,fcc,0.042553524,mp-780141,Li6Mn5O12,0.077,P1
3609,fcc,0.042570159,mp-532526,Li2PdO3,0.049,P1
3610,none,0.042580133,mp-761946,Li3V3P8O29,none,P1
3611,none,0.042618958,mp-768884,Li4B2O5,none,C2/c
3612,none,0.042623749,mp-25907,LiSn(PO3)4,none,Pbcn
3613,none,0.042636981,mp-761943,Li3V3P8O29,none,P1
3614,none,0.042695237,mp-777633,LiCrP2O7,none,Cc
3615,none,0.042697003,mp-851277,Li4Fe2(PO4)3,none,Pbcn
3616,none,0.042707875,mp-540033,LiMnP2O7,none,Pc
3617,bcc,0.042708045,mp-26477,LiCuPO4,0.171,I-4
3618,none,0.042730632,mp-775519,Li2Ti3NiO8,none,P6_3mc
3619,none,0.042743595,mp-705089,LiFe3P3O11,none,P2_1/c
3620,none,0.042756061,mp-540462,LiCrPO4,none,P-1
3621,none,0.042769613,mp-1173957,Li3Mn2CoO6,none,P-1
3622,none,0.042771579,mp-762486,LiFe(PO3)3,none,Pnma
3623,none,0.042771896,mp-15902,Li2Ca2Ta3O10,none,I4/mmm
3624,none,0.042778814,mp-764657,Li5Fe8(BO3)8,none,P1
3625,none,0.042779014,mp-540434,LiCo(PO3)4,none,P2_1
3626,none,0.042785663,mp-761935,Li3V3P8O29,none,C2/c
3627,none,0.042836715,mp-761409,LiFeSiO4,none,P2_13
3628,none,0.042844511,mp-773128,Li10Co4O9,none,P-1
3629,none,0.042849415,mp-1174192,Li4Mn3CoO8,none,P-1
3630,fcc,0.042856992,mp-770797,LiMn2O4,0.086,R3m
3631,none,0.04286952,mp-764626,Li5Fe8(BO3)8,none,P1
3632,none,0.04289335,mp-752638,LiCuCO3,none,Ibca
3633,fcc,0.042940466,mp-769596,Li3V3CrO8,0.06,P1
3634,none,0.042945094,mp-772513,LiCr3O8,none,Pnma
3635,none,0.042952411,mp-762666,LiFe5P3O13,none,P-1
3636,fcc,0.042962442,mp-769660,Li2TiFe2O5,0.045,C2/c
3637,none,0.042982586,mp-761911,Li2Cu(PO3)4,none,Cc
3638,none,0.042985171,mp-764904,LiFe2(BO3)2,none,Pc
3639,none,0.042985665,mp-763894,Li3Fe3(PO4)4,none,P1
3640,fcc,0.0429879,mp-770530,Li14Mn2O9,0.021,P-3
3641,none,0.042995233,mp-684090,LiSbP2O7,none,P2_1/c
3642,fcc,0.04300033,mp-762449,Li7Ni13O24,0.069,C2/m
3643,none,0.043007933,mp-780579,Li3V3P8O29,none,Cc
3644,none,0.043010347,mp-772658,Li9Mn7V12O48,none,P1
3645,none,0.043024359,mp-772318,Li2Cr2O7,none,P-1
3646,none,0.04303947,mp-861062,LiMnPO4,none,P6_3
3647,none,0.043047594,mp-764150,Li3V3P8O29,none,P1
3648,none,0.043049431,mp-1176978,Li9V6(P8O29)2,none,P1
3649,none,0.043064408,mp-771276,LiMnB2O5,none,P2_1/c
3650,none,0.043087392,mp-771430,Li6Cr2O7,none,C2/c
3651,fcc,0.043087895,mp-774006,Li4Mn3SbO8,0.036,R-3m
3652,none,0.043089541,mp-761344,Li2VP2O7,none,P1
3653,none,0.043114879,mp-770184,Li3Co(CuO2)4,none,C2/m
3654,none,0.043135616,mp-771231,Li4Mn5Co3O16,none,Cm
3655,fcc,0.043177874,mp-1175159,Li7Mn4CoO12,0.074,P-1
3656,fcc,0.043186197,mp-772131,Li3Fe3SbO8,0,C2/m
3657,fcc,0.043188542,mp-767329,Li3TiCr3O8,0.059,C2/m
3658,none,0.043188656,mp-767480,Li3Cu2SbO6,none,C2/c
3659,none,0.043217071,mp-777066,Li2MnP2O7,none,P2_1/c
3660,none,0.043232812,mp-504264,LiCuPO4,none,P2_1/c
3661,none,0.043252896,mp-1176756,LiMn4(P2O7)3,none,P2_1/c
3662,none,0.043258963,mp-704198,LiMo2P3O13,none,P2_1
3663,fcc,0.043272611,mp-761748,Li2CrCo3O8,0.082,R-3m
3664,none,0.043275737,mp-1176592,LiTi(PO3)4,none,C2/c
3665,none,0.043285109,mp-31553,LiCoPO4,none,P2_1/c
3666,none,0.043287394,mp-863876,Li3V3P8O29,none,P1
3667,none,0.043289582,mp-767237,LiFe2(PO4)2,none,P2_1
3668,none,0.043291438,mp-1177226,Li4V3P8O29,none,P1
3669,fcc,0.043321921,mp-1222531,Li3V8ZnO16,0.059,P-4m2
3670,fcc,0.043324371,mp-763639,Li3Ti2V3O10,0.084,P-1
3671,none,0.043328087,mp-773362,Li2V6O15,none,C2/m
3672,none,0.043353837,mp-764122,Li3V3P8O29,none,P1
3673,none,0.043360135,mp-25975,LiCu(PO3)2,none,C2/c
3674,fcc,0.043361399,mp-769472,Li11(NiO4)2,0.082,C2
3675,none,0.043361446,mp-1177499,Li3V3P8O29,none,P1
3676,none,0.043381405,mp-773145,Li2Cr4O13,none,C222_1
3677,none,0.043393875,mp-8711,Cs2Li14Tb3O14,none,Immm
3678,fcc,0.043397109,mp-763708,Li2TiV2O6,0.069,C2/m
3679,fcc,0.043412244,mp-859799,Li9Si2Ni5O16,0.09,P-1
3680,none,0.043416664,mp-771379,LiCrBO3,none,P1
3681,none,0.043423752,mp-540443,LiCrPO4,none,P31c
3682,none,0.043424952,mp-705401,Li2Ni4P4O15,none,C2/c
3683,fcc,0.043429983,mp-773354,Li5Fe3(NiO5)2,0.053,P-1
3684,none,0.043468642,mp-764944,LiMn(CO3)2,none,P2_1
3685,none,0.043486359,mp-772248,LiV4CuO12,none,C2
3686,fcc,0.043510822,mp-762624,Li2Mn(NiO3)2,0.083,C2
3687,none,0.043529925,mp-769782,Li3Co(BO3)2,none,P-1
3688,none,0.043532743,mp-1040085,NaLiMg30O31,none,Pmm2
3689,none,0.043533624,mp-1177312,Li4V3P8O29,none,P1
3690,none,0.043540185,mp-764541,Li5Fe8(BO3)8,none,P1
3691,none,0.043544413,mp-762941,Li6Cr5(P2O7)4,none,P-1
3692,none,0.043551829,mp-766740,Li6Cr5CuO12,none,C2/m
3693,none,0.043552513,mp-775531,LiMnO2,none,Cc
3694,none,0.043566642,mp-770140,Li4Fe5Sb3O16,none,Cm
3695,none,0.043585996,mp-772517,Li7Fe4(PO4)6,none,Cc
3696,none,0.043588946,mp-850770,Li9V6(P8O29)2,none,P1
3697,fcc,0.043608396,mp-778656,Li4Mn3(CoO4)3,0,P-1
3698,none,0.043613308,mp-850028,Li2Mn3(BO3)3,none,P1
3699,none,0.043632635,mp-764978,LiCo(CO3)2,none,P2_1
3700,hcp,0.043664913,mp-762021,LiNiPO4,0.144,P2_12_12_1
3701,none,0.043670256,mp-540011,Li2Ni(PO3)5,none,Pc
3702,fcc,0.043681704,mp-1222577,LiAlNi3O5,0.058,C2/m
3703,none,0.043725076,mp-769870,Li4Fe3Sb5O16,none,P1
3704,none,0.043777128,mp-755289,Li3Y3ZrO8,none,C222
3705,fcc,0.043782296,mp-762918,Li2Cr2CoO6,0.084,C2/m
3706,none,0.043792868,mp-763529,Li3P2WO9,none,P2_1/c
3707,none,0.043814009,mp-770694,Li6Cr2O7,none,P2_1/c
3708,none,0.043816453,mp-772256,LiVPO5,none,Pna2_1
3709,none,0.043827516,mp-771291,Li3Mn(BO2)5,none,P-1
3710,none,0.043832939,mp-779853,Li3Co(BO3)2,none,P2_1/c
3711,none,0.043854398,mp-766084,Li7Nb12O24,none,P-1
3712,fcc,0.043863205,mp-771619,Li5Cr2Ni3O10,0.052,P-1
3713,none,0.043880542,mp-850410,Li2Mn3(BO3)3,none,P-1
3714,none,0.043884835,mp-765961,LiFeSi3O8,none,P2_1/c
3715,none,0.043904815,mp-1174323,Li4Mn3O7,none,P-1
3716,fcc,0.043907299,mp-773267,LiZn(Fe5O8)2,0,R3m
3717,none,0.043915344,mp-763740,LiFeSiO4,none,P6_3
3718,none,0.043915952,mp-767906,LiMn2(PO4)2,none,P1
3719,none,0.043920535,mp-764065,Li3V3P8O29,none,P1
3720,none,0.043930208,mp-775280,Li5Fe8(BO3)8,none,P1
3721,none,0.043934665,mp-540435,Li2Mo(PO4)2,none,Cc
3722,fcc,0.043938955,mp-1192813,LiTi2O4,0.075,Pmn2_1
3723,none,0.043949496,mp-778561,Li5CoHO4,none,Pnma
3724,fcc,0.043999884,mp-762255,Li(NiO2)2,0.076,Imma
3725,fcc,0.044009718,mp-775098,Li2VCo3O8,0.073,R-3m
3726,none,0.044021589,mp-31722,Li4Cr(PO4)2,none,P2_1/c
3727,none,0.044022451,mp-504340,LiSb(PO3)4,none,P2_1
3728,none,0.044037999,mp-704734,Li2V18O39,none,P1
3729,none,0.044060716,mp-863891,Li3V3P8O29,none,P1
3730,fcc,0.044069883,mp-764015,Li4Ti3VO8,0,R-3m
3731,none,0.04407468,mp-774346,Li3V2(PO4)3,none,C2
3732,fcc,0.044080568,mp-771714,Li3MnNi3O8,0.099,R-3m
3733,fcc,0.044080659,mp-763447,Li5Ti2Co5O12,0.055,C2
3734,none,0.044084645,mp-762902,Li2(NiO2)3,none,Cc
3735,hcp,0.044103622,mp-763492,Li3CoSiO5,0.088,Pna2_1
3736,fcc,0.044104041,mp-1178032,Li2CrCuO4,0.05,I-4m2
3737,hcp,0.044110099,mp-767051,LiNi2(PO4)2,0.128,P2_1
3738,hcp,0.044118655,mp-676591,Li11Nb12O36,0.093,P1
3739,none,0.044119923,mp-557492,LiLa5Ti8O24,none,Pm
3740,none,0.044121173,mp-761806,Li2NbCo3O8,none,P6_3mc
3741,none,0.04412261,mp-770551,Li2MnAlO4,none,P2_1/c
3742,fcc,0.044149305,mp-752879,Li3Ti4O8,0,R-3m
3743,none,0.044172678,mp-540475,LiMnPO4,none,P-1
3744,none,0.044193547,mp-757899,Li3Sn2(PO4)3,none,P2_1/c
3745,fcc,0.044195419,mp-761367,Li3Mn2CoO6,0.041,C2/m
3746,fcc,0.044196126,mp-762419,Li4Mn7O12,0.079,P1
3747,fcc,0.044196952,mp-764759,Li6Mn5O12,0.082,C2
3748,none,0.044197254,mp-766662,Li4V3P8O29,none,P1
3749,fcc,0.044201095,mp-1175357,Li7Mn5O12,0,P2/m
3750,none,0.044204443,mp-761664,Li2CoP2O7,none,P2_1/c
3751,none,0.044206608,mp-762033,Li3V3P8O29,none,P1
3752,fcc,0.04420679,mp-777733,Li5Mn2Fe17O32,0,P1
3753,none,0.044218153,mp-761994,LiFeCO4,none,Pnma
3754,none,0.044258879,mp-765694,Li3Co(NiO3)2,none,C2/c
3755,none,0.044274549,mp-704942,Li2Cr(PO3)5,none,Pc
3756,none,0.044277021,mp-863890,Li3V3P8O29,none,P1
3757,none,0.044288902,mp-763528,LiV4(PO4)3,none,I-42d
3758,none,0.044299725,mp-764263,Li3V3P8O29,none,P1
3759,none,0.044307815,mp-764507,Li5Fe8(BO3)8,none,P1
3760,none,0.044312964,mp-699137,Li4(CoO2)7,none,P1
3761,none,0.044313797,mp-773348,Li4Y3VO8,none,C222
3762,none,0.044323569,mp-764552,LiFe2(BO3)2,none,P1
3763,none,0.044346897,mp-772456,Li2Mn3CuO8,none,Cc
3764,none,0.044355009,mp-1173969,Li3Mn2O5,none,P-1
3765,none,0.044355519,mp-771498,Li4Ti3Fe5O16,none,P1
3766,none,0.044365568,mp-853194,Li2Mn3(BO3)3,none,P-1
3767,none,0.044368873,mp-31606,LiCo(PO3)4,none,C2/c
3768,none,0.044377096,mp-770350,Li3Cu4NiO8,none,C2/m
3769,none,0.044383532,mp-761374,Li3V2(PO4)3,none,C2
3770,none,0.044388833,mp-764576,Li5Fe8(BO3)8,none,P1
3771,none,0.04439206,mp-762621,LiFe(PO3)3,none,P-1
3772,none,0.044399057,mp-1177204,Li4V3P8O29,none,P1
3773,fcc,0.044406252,mp-1175373,Li7Mn5O12,0,P-1
3774,none,0.044410941,mp-1178073,Li2CrP2O7,none,P1
3775,none,0.044411725,mp-766780,Li3Fe2(PO4)3,none,Ia-3d
3776,none,0.044411953,mp-1177387,Li4V3P8O29,none,Cc
3777,none,0.044473129,mp-762561,LiFeP2O7,none,P2_1/c
3778,fcc,0.044479184,mp-765697,Li2TiFeO4,0.059,Imm2
3779,none,0.044482666,mp-1222487,LiLa8Cu3O16,none,P-1
3780,none,0.044492811,mp-1177149,Li5Mn4(P2O7)4,none,P1
3781,none,0.04449464,mp-1177154,Li5Fe4(P2O7)4,none,P1
3782,none,0.044497431,mp-762680,Li2Fe3P9O28,none,P-1
3783,fcc,0.044507075,mp-1174015,Li3Mn2O5,0.07,C2/m
3784,none,0.044510048,mp-776768,Li4V5Fe3O16,none,P1
3785,none,0.044531171,mp-765316,Li3Ni2(CO3)4,none,P1
3786,none,0.044569886,mp-540312,Li2V(PO4)2,none,P2_1
3787,fcc,0.044575267,mp-1174775,Li6Mn3CoO10,0.065,P1
3788,hcp,0.044583817,mp-540405,LiFePO4,0.149,Pna2_1
3789,none,0.044590132,mp-766991,Li4Si3(NiO5)2,none,C2/c
3790,none,0.044599494,mp-764178,Li3V3P8O29,none,P3c1
3791,none,0.044600677,mp-776912,KLiNiO2,none,C2/m
3792,fcc,0.044601648,mp-33461,Li3Mn3O8,0.072,R-3m
3793,none,0.044638646,mp-762457,LiFePO4,none,P-1
3794,none,0.04463883,mp-1174322,Li4Mn3O7,none,P-1
3795,none,0.044646014,mp-705315,LiCr(PO3)5,none,P2_1/c
3796,fcc,0.044649191,mp-769795,Li3Cr(CoO2)4,0.046,C2/m
3797,none,0.044667388,mp-764068,Li3V3P8O29,none,P1
3798,fcc,0.04468875,mp-768104,Li6(NiO2)13,0.093,P-1
3799,none,0.044715041,mp-556002,Li6Cu(B2O5)2,none,P1
3800,none,0.044721296,mp-850116,Li8(NiO2)5,none,P-1
3801,none,0.04472944,mp-761820,LiFeSi3O8,none,P-1
3802,none,0.04473554,mp-851255,Li4V3P8O29,none,P1
3803,none,0.044749484,mp-762245,LiFe2(BO3)2,none,Cc
3804,none,0.044752401,mp-761974,LiCoPO4,none,P2_1/c
3805,none,0.044758269,mp-1173946,Li3Mn2CoO6,none,C2/m
3806,none,0.044761185,mp-762547,LiFe4(PO4)3,none,Pccn
3807,none,0.044765612,mp-766647,Li4V3P8O29,none,P1
3808,none,0.044788882,mp-764665,Li5Fe8(BO3)8,none,P1
3809,fcc,0.044798557,mp-764140,Li5Cr3NiO8,0,P4_332
3810,none,0.044800332,mp-763663,LiMn3(P3O10)2,none,C222_1
3811,none,0.044803691,mp-777085,Li4Ni(BO3)2,none,Pnnm
3812,none,0.044859012,mp-763475,Li2V3(P2O7)2,none,P-1
3813,fcc,0.04485914,mp-772244,Li2TiFeO4,0.037,P2/m
3814,fcc,0.044862178,mp-773460,Li2FeCuO4,0,P2/m
3815,none,0.04487938,mp-761699,LiMnPO4,none,P6_1
3816,none,0.044883942,mp-764006,Li3TiFe3O8,none,P6_3mc
3817,none,0.044915944,mp-762146,Li3V3P8O29,none,P1
3818,none,0.044918124,mp-1177192,Li4V3P8O29,none,Cc
3819,none,0.04493459,mp-761956,Li3V3P8O29,none,P1
3820,none,0.044943615,mp-764493,Li5Fe8(BO3)8,none,P1
3821,none,0.044945074,mp-770358,Li3V3(BO5)2,none,P-1
3822,none,0.044963678,mp-851212,Li9V6(P8O29)2,none,P1
3823,none,0.044968246,mp-772481,Li4Mn5Fe3O16,none,Cm
3824,none,0.044976755,mp-761723,Li2Si4Ni4O13,none,P-1
3825,none,0.044983123,mp-1040107,NaLiMg30O31,none,P4mm
3826,none,0.04500138,mp-775335,Li2Cr3FeO8,none,Cc
3827,fcc,0.045002703,mp-769907,Li4NbNi3O8,0,R-3m
3828,none,0.045008064,mp-863870,Li3V3P8O29,none,P1
3829,none,0.045009281,mp-770354,Li3V3(BO5)2,none,P2_1/c
3830,none,0.045028078,mp-1176830,Li9V4(PO4)6,none,P1
3831,none,0.045034191,mp-761400,LiCrPO4,none,P2_1/c
3832,none,0.045068744,mp-1174383,Li5Mn2CoO8,none,P1
3833,none,0.045073836,mp-770386,LiMnAlO4,none,Pnma
3834,none,0.045082197,mp-761516,Li2Fe(PO4)2,none,Pbca
3835,none,0.045088283,mp-1177609,Li3Mn5(PO4)6,none,C2/c
3836,fcc,0.045089803,mp-765573,Li4Zr3O8,0.044,P2/c
3837,none,0.045094605,mp-764614,Li5Fe8(BO3)8,none,P1
3838,none,0.045101566,mp-771486,Li5FeO4,none,P2_1/c
3839,none,0.045107997,mp-761383,Li2CrP2O7,none,P-1
3840,none,0.045119929,mp-540456,LiCr(PO3)3,none,Cc
3841,fcc,0.045121552,mp-766785,Li4Si2NiO7,0.099,P1
3842,fcc,0.045136195,mp-1040140,LiLaMg30O32,0,P4/mmm
3843,none,0.045163263,mp-851253,Li4V3P8O29,none,P1
3844,none,0.045167869,mp-704203,Li2VP4O13,none,P-1
3845,fcc,0.04518985,mp-771219,Li(CoO2)2,0.073,R3m
3846,none,0.045209627,mp-26871,Li2Sn3(P2O7)2,none,P-1
3847,none,0.045210626,mp-780024,LiMn(PO3)3,none,P-1
3848,fcc,0.045225591,mp-763697,Li(CoO2)3,0.098,C2/m
3849,none,0.045285329,mp-6241,LiGa(SiO3)2,none,P2_1/c
3850,hcp,0.045296045,mp-762434,Li15(FeO6)2,0.09,P1
3851,none,0.045307471,mp-763357,LiP2WO8,none,C2/m
3852,none,0.045311099,mp-771521,LiLa6Mn3O14,none,Pc
3853,none,0.045314833,mp-15901,Li2LaTa2O7,none,I4/mmm
3854,none,0.045318838,mp-585189,LiMn4(PO4)3,none,I-42d
3855,fcc,0.045351385,mp-1174791,Li6Mn3CoO10,0.064,P1
3856,none,0.045361084,mp-764031,Li3V3P8O29,none,P1
3857,none,0.045363377,mp-765857,LiCr(SiO3)2,none,P-1
3858,none,0.045376189,mp-766989,LiFe(Si2O5)2,none,Pnc2
3859,none,0.045378693,mp-763387,Li2Ni(CO3)2,none,Fdd2
3860,none,0.045381291,mp-504218,Li6Fe3P8O29,none,P1
3861,none,0.045400175,mp-31592,Li3Co3(PO4)4,none,P2_1/c
3862,none,0.04540653,mp-761638,Li2CoP2O7,none,C2/c
3863,none,0.045408169,mp-763920,Li6Fe5CoO12,none,C2/m
3864,none,0.045426574,mp-1177210,Li4V3P8O29,none,P1
3865,none,0.045427228,mp-863889,Li3V3P8O29,none,P1
3866,none,0.045444563,mp-765214,Li4V3P8O29,none,P1
3867,fcc,0.045460561,mp-777000,Li3V4CrO8,0,C2/m
3868,fcc,0.045461481,mp-1175274,Li7Mn4CoO12,0.061,P2
3869,fcc,0.045496401,mp-762292,Li4V5O10,0.068,P1
3870,fcc,0.045526192,mp-1173996,Li5Co3O8,0.067,P2/m
3871,fcc,0.0455367,mp-761891,Li3Ti4O8,0,C2/m
3872,none,0.045554328,mp-762932,Li4(NiO2)5,none,P1
3873,none,0.045560655,mp-765044,Li14V9(P2O7)8,none,P-1
3874,fcc,0.045577788,mp-780145,Li11Mn6O16,0.072,P1
3875,none,0.045586607,mp-1177212,Li4V3P8O29,none,P1
3876,none,0.045591232,mp-766745,Li3V3P8O29,none,P1
3877,fcc,0.045592668,mp-1173884,Li2MnCoO4,0.041,C2/m
3878,none,0.045595601,mp-764139,Li3V3P8O29,none,C2/c
3879,none,0.045605535,mp-540471,LiMn(PO3)3,none,P-6c2
3880,none,0.045623244,mp-753081,Li3(CuO)4,none,Imm2
3881,none,0.045641855,mp-765395,Li4V3P8O29,none,P1
3882,none,0.045647157,mp-773607,LiTiNiO4,none,Imma
3883,none,0.045663497,mp-780813,Li2Mn3(BO3)3,none,P-1
3884,none,0.045666186,mp-766760,Li2NiP2O7,none,P-1
3885,none,0.04566995,mp-540068,LiMnP2O7,none,P2_1/m
3886,none,0.045676406,mp-766673,Li4V3P8O29,none,P1
3887,none,0.045696573,mp-1177392,Li5Mn4(P2O7)4,none,P1
3888,none,0.045719031,mp-705314,Li3V3P8O29,none,C2/c
3889,none,0.045731523,mp-772394,Li2NbNi3O8,none,P6_3mc
3890,none,0.045743811,mp-767978,Li3La7(FeO8)2,none,Cm
3891,fcc,0.045750602,mp-1173970,Li3Co2O5,0.066,C2/m
3892,fcc,0.045751982,mp-767955,Li3Fe2(NiO4)2,0.075,P-1
3893,none,0.04576495,mp-764116,Li3V3P8O29,none,P1
3894,none,0.045771578,mp-6745,LiGa(SiO3)2,none,C2/c
3895,none,0.045778255,mp-764720,LiFe2(BO3)2,none,P1
3896,none,0.045789765,mp-762032,Ba4Li4Ti19O44,none,P1
3897,none,0.045794809,mp-775302,Li2Cr(Si2O5)3,none,Cmce
3898,fcc,0.045798912,mp-771753,Li2Ti3MnO8,0.075,R-3m
3899,fcc,0.045799783,mp-1222821,Li(NiO2)3,0.094,C2/m
3900,none,0.04580119,mp-1175340,Li7Mn5O12,none,P-1
3901,none,0.045802372,mp-1174243,Li4Mn3CoO8,none,C2/m
3902,none,0.045809361,mp-764824,Li5Fe8(BO3)8,none,P1
3903,none,0.045811546,mp-853207,Li4V3P8O29,none,P1
3904,none,0.045828717,mp-1101511,LiMn4(PO4)3,none,Fdd2
3905,none,0.045892941,mp-781141,Li3V3P8O29,none,P1
3906,fcc,0.045902084,mp-767292,Li8Fe7O15,0.032,C2/m
3907,none,0.045908679,mp-763396,Li4Co2Si3O10,none,C2/c
3908,none,0.045909518,mp-672984,LiCu(PO3)4,none,P2_12_12_1
3909,none,0.045921792,mp-996986,LiCuO2,none,Cmcm
3910,fcc,0.045937928,mp-1175215,Li7Mn4CoO12,0,P1
3911,none,0.045938457,mp-763768,K8Li9Mn4O16,none,P1
3912,none,0.045949724,mp-762012,LiNiPO4,none,P-1
3913,fcc,0.045983306,mp-1222520,Li5Mn2CrO8,0.048,C2/m
3914,none,0.046002059,mp-861542,LiFeSiO4,none,Pnma
3915,none,0.046002386,mp-1020025,LiB3O5,none,Pnma
3916,none,0.046027455,mp-764066,Li3V3P8O29,none,P1
3917,none,0.04604288,mp-756912,LiZnBO3,none,P1
3918,none,0.046048642,mp-762844,Li4Fe2Si4O13,none,Pna2_1
3919,none,0.046057945,mp-849676,Li5Mn4O8,none,Cmc2_1
3920,none,0.046060331,mp-764528,Li5Fe8(BO3)8,none,P1
3921,none,0.046074685,mp-764771,Li6V5O12,none,P1
3922,none,0.046077614,mp-1177598,Li3V3P8O29,none,P1
3923,none,0.046086174,mp-761496,LiNi4(PO4)3,none,Pnma
3924,none,0.046094943,mp-764114,Li4V3P8O29,none,P1
3925,none,0.046103653,mp-774994,Li5Fe8(BO3)8,none,P1
3926,none,0.046106349,mp-761433,LiCrPO4,none,P6_3
3927,none,0.04611012,mp-1177229,Li4V3P8O29,none,P1
3928,none,0.046124208,mp-777057,LiCoPO4,none,Pnma
3929,none,0.046124304,mp-764531,Li5Fe8(BO3)8,none,P1
3930,none,0.046134076,mp-704197,Li2Mo(PO4)2,none,P2_1
3931,none,0.046137916,mp-780910,Li2Mn3(BO3)3,none,P1
3932,fcc,0.046146233,mp-766150,Li4Ti2Mn3O10,0.1,P-1
3933,fcc,0.046170975,mp-775130,Li2CrO3,0.061,C2/m
3934,none,0.046178821,mp-765414,Li4V3P8O29,none,P1