,anion_type,e_above_hull,mp_id,pretty_formula,rms,spacegroup.symbol
1270,fcc,0.012531995,mp-775651,Li2Mn3CoO8,0.074,R-3m
1271,fcc,0.012538392,mp-769553,Li5Co2Ni3O10,0.052,P2/m
1272,fcc,0.012547634,mp-771725,LiNi3O4,0,Cmmm
1273,none,0.012565638,mp-773078,Li7Ca8Nb12O40,none,P1
1274,none,0.012572795,mp-762639,LiFeSiO4,none,Pc
1275,fcc,0.012581892,mp-771282,Li24Ti7Cr5O36,0.063,P1
1276,fcc,0.012596482,mp-698600,Li11Mn13O32,0.08,C2/m
1277,fcc,0.012604691,mp-761831,Li3Cr(CoO3)2,0,C2/m
1278,none,0.012616017,mp-1190132,Li2Ti3O7,none,P2_1/m
1279,fcc,0.01261955,mp-764764,Li7Mn5O12,0.069,C2/m
1280,fcc,0.012626039,mp-763044,Li2NiSnO4,0,Imma
1281,fcc,0.01264146,mp-770172,Li4MnCrO6,0.067,P1
1282,none,0.012658787,mp-763485,Li2CoSiO4,none,Pnma
1283,none,0.012669946,mp-849421,LiV2(PO4)3,none,P2_1/c
1284,none,0.012681,mp-1177543,Li3V4(PO4)6,none,P1
1285,fcc,0.012708004,mp-1045574,Li3(NiO2)4,0.08,C2/m
1286,none,0.0127324,mp-966802,Cs2Li3(BO2)5,none,C222_1
1287,none,0.012736771,mp-1191302,Li6Cu(B2O5)2,none,P-1
1288,none,0.012765425,mp-769558,LiMn(CO3)2,none,R-3
1289,fcc,0.012772724,mp-761592,Li3Fe2CoO6,0,C2/m
1290,fcc,0.012779496,mp-765504,Li8Fe3Co5O16,0.063,P2/m
1291,fcc,0.012855389,mp-771367,Li24Ti7Cr5O36,0.063,P1
1292,none,0.012856799,mp-761484,LiFePO4,none,Pca2_1
1293,fcc,0.012868892,mp-770534,Li2Mn3O7,0.092,P-1
1294,none,0.012900363,mp-1176852,Li7V3P8O29,none,P1
1295,fcc,0.012902977,mp-769652,Li2VCrO4,0.043,C2/m
1296,fcc,0.012914537,mp-778500,Li5TiMn9O20,0.085,P1
1297,fcc,0.012973886,mp-1222513,Li3Fe2CoO6,0.043,C2/m
1298,fcc,0.01299529,mp-771283,Li24Ti7Cr5O36,0.064,P1
1299,none,0.01303036,mp-1176864,Li7V3P8O29,none,P1
1300,fcc,0.013056168,mp-1174246,Li7Co5O12,0.061,P-1
1301,fcc,0.013062121,mp-1095705,LiMg30TiO32,0,P4/mmm
1302,none,0.0130668,mp-540161,LiMn(PO3)4,none,C2/c
1303,none,0.01307521,mp-32107,Li3Mo2(PO4)3,none,C2/c
1304,fcc,0.013082402,mp-780888,Li(CoO2)4,0.104,R-3m
1305,fcc,0.013102198,mp-1222691,Li5Fe2(IrO5)2,0.054,C2
1306,fcc,0.013113883,mp-771980,Li3Ni5O8,0,R-3m
1307,fcc,0.013160988,mp-768075,Li5Fe11O16,0,P2_1/c
1308,fcc,0.013169399,mp-773081,Li3Ti6Zn3O16,0.06,P2_1
1309,none,0.013170786,mp-761774,Li8V3P8O29,none,C2
1310,fcc,0.013192296,mp-771213,Li4TiCrO6,0.064,P1
1311,fcc,0.013197244,mp-850266,Li3Co4SbO8,0,C2/m
1312,hcp,0.013206976,mp-863851,LiFeSiO4,0.116,Pnma
1313,fcc,0.013210914,mp-861573,Li3Al2CrO6,0.06,C2/m
1314,fcc,0.013220872,mp-768054,Li4V3CrO8,0.043,P-1
1315,none,0.013229035,mp-765267,Li3Fe(BO3)2,none,P1
1316,fcc,0.013241085,mp-770302,Li24Mn5Cr7O36,0.067,P1
1317,none,0.013282492,mp-1012668,LiMo2P2O9,none,Pnma
1318,fcc,0.013298869,mp-779388,Li24Mn5Cr7O36,0.068,P1
1319,none,0.013303646,mp-771450,Li5Ni3(SnO5)2,none,P-1
1320,hcp,0.013309133,mp-766923,LiVSiO4,0.119,Pnma
1321,none,0.013319382,mp-850007,Li7V16(PO4)24,none,P1
1322,fcc,0.013322837,mp-775035,Li2NiSnO4,0.029,P2/m
1323,none,0.01332924,mp-761735,Li2Fe2Si4O11,none,P-1
1324,fcc,0.013331637,mp-699179,Li7Mn17O32,0.083,C2
1325,none,0.013340012,mp-562247,Li4Mo5O17,none,P-1
1326,none,0.013368679,mp-1013878,LiV3P3O13,none,P2_1/m
1327,fcc,0.013404402,mp-1177618,Li3MnCr3O8,0.061,R-3m
1328,hcp,0.013421546,mp-768142,Li13Nb14ZnO42,0.081,P1
1329,none,0.013443596,mp-761443,Li2V2Si4O11,none,P-1
1330,none,0.013448515,mp-1222444,LiAlSiO4,none,P6_222
1331,fcc,0.013472492,mp-690572,Li5(NiO2)6,0.07,P1
1332,none,0.013473084,mp-559441,LiTiPO5,none,P-1
1333,none,0.013481023,mp-559612,KLiO,none,Cmce
1334,hcp,0.01348123,mp-768947,Li10Zn3(GeO4)4,0.112,P1
1335,none,0.01351308,mp-1020022,Li3B(PO4)2,none,P-1
1336,none,0.013520971,mp-540132,Li2CoP2O7,none,C2/c
1337,none,0.01352609,mp-768040,Li11Mn12(BO3)12,none,P1
1338,none,0.0135509,mp-540171,Li2Ni(PO3)4,none,Pnma
1339,none,0.013573458,mp-757306,LiCu(PO3)4,none,Cc
1340,none,0.013600079,mp-1198740,Li7Nd3Zr2O12,none,I4_1/acd
1341,none,0.01360599,mp-1176972,Li7V3P8O29,none,P1
1342,fcc,0.013617786,mp-770301,Li24Mn5Cr7O36,0.068,P1
1343,fcc,0.013638205,mp-770313,Li24Mn5Cr7O36,0.067,P1
1344,fcc,0.013638768,mp-770308,Li24Mn5Cr7O36,0.069,P1
1345,none,0.013649145,mp-1201246,NaLi2(RuO2)6,none,P-1
1346,none,0.013655749,mp-1178107,Li11Mn12(BO3)12,none,P1
1347,none,0.013677193,mp-773577,Li8Fe2O9,none,P-1
1348,none,0.013692598,mp-566061,Li2Cu(WO4)2,none,P-1
1349,fcc,0.013709852,mp-1222736,Li5Co(Ni2O5)2,0.061,C2/m
1350,fcc,0.013714019,mp-771617,Li7Fe5O12,0.052,C2
1351,none,0.013726859,mp-1198701,Li6Cu(B2O5)2,none,P-1
1352,none,0.013763146,mp-31579,Li3Co(PO4)2,none,P2_1
1353,hcp,0.013764931,mp-617172,Li2VPO6,0.117,Pna2_1
1354,fcc,0.013776104,mp-770259,Li24Mn5Cr7O36,0.067,P1
1355,none,0.013785767,mp-781184,Li2Mn7(P2O7)4,none,C222_1
1356,fcc,0.01381801,mp-769902,Li4Cr3NiO8,0,R-3m
1357,fcc,0.0138233,mp-698569,Li21Mo11O32,0.02,C2/m
1358,none,0.01384543,mp-767384,Ba2LiTi11O24,none,P1
1359,hcp,0.013882388,mp-764958,Li2CoSiO4,0.092,P2_1
1360,fcc,0.013906607,mp-770321,Li2Mn3CrO8,0.073,R-3m
1361,none,0.013907816,mp-559908,LiTa3O8,none,Pmmn
1362,fcc,0.013930119,mp-771793,Li4Cr3CuO8,0,R-3m
1363,fcc,0.013931567,mp-775729,Li4V3CrO8,0.043,P2/m
1364,fcc,0.01393287,mp-770856,Li2MnCrO4,0,P-1
1365,none,0.013964996,mp-767959,LiCo2(PO4)2,none,Pc
1366,fcc,0.013967953,mp-770300,Li24Mn5Cr7O36,0.067,P1
1367,none,0.013990696,mp-19209,LiAl(MoO4)2,none,P-1
1368,none,0.013997742,mp-770390,Li2Cr4O13,none,P2_1/c
1369,none,0.014014321,mp-775166,Li2TiMn3O8,none,P1
1370,none,0.014017937,mp-767856,Li5V12O32,none,Cm
1371,none,0.014019968,mp-31928,LiMnP2O7,none,C2
1372,none,0.014031459,mp-504207,LiSb(PO3)4,none,C2/c
1373,none,0.014041228,mp-1019715,CsLi(B3O5)2,none,I2_12_12_1
1374,fcc,0.01404188,mp-780303,Li4Fe3SbO8,0.053,C2/m
1375,fcc,0.014073653,mp-767977,Li17Ni11O28,0.071,P-1
1376,none,0.014078983,mp-771224,Li5Ti2Ni3O10,none,P-1
1377,hcp,0.014080368,mp-773399,Li3Fe(PO4)2,0.126,P2_1/m
1378,fcc,0.014083379,mp-1176899,Li9V21O40,0.073,I-4
1379,fcc,0.014098385,mp-853151,Li5Mn(Ni2O5)2,0.059,P-1
1380,fcc,0.014102833,mp-765167,Li13Mn17O40,0.081,C2/m
1381,fcc,0.014119918,mp-761777,Li2CoNi3O8,0.072,R-3m
1382,fcc,0.014121219,mp-1222345,LiNiAsO4,0,Imma
1383,none,0.01415055,mp-760017,Li2TiO3,none,P-1
1384,none,0.014155788,mp-1211129,LiP4(RuO7)2,none,P-1
1385,fcc,0.014156906,mp-770363,Li24Mn5Cr7O36,0.068,P1
1386,none,0.014166317,mp-585261,LiMo4(P2O11)2,none,P-1
1387,none,0.014166664,mp-861484,LiMnPO4,none,Pna2_1
1388,none,0.01416782,mp-579161,Li11La12Fe3O28,none,P4/mbm
1389,none,0.014171903,mp-772434,Li4CrO4,none,Cmcm
1390,fcc,0.014174849,mp-770267,Li24Mn5Cr7O36,0.066,P1
1391,hcp,0.014185975,mp-530514,Li17Nb18O54,0.087,P1
1392,fcc,0.014221188,mp-771616,Li7Mn5O12,0.067,C2
1393,none,0.01424543,mp-684534,LiNbP4O13,none,P1
1394,none,0.014247631,mp-1200805,CsLi(B3O5)2,none,P222_1
1395,fcc,0.014258811,mp-773055,Li3Mg3Ti6O16,0.059,P2_1
1396,fcc,0.014303982,mp-767904,Li9Mn14O32,0.082,Cm
1397,none,0.014338989,mp-567052,LiMo2AsO9,none,Pmmn
1398,none,0.014342489,mp-540182,LiVP2O7,none,C2/c
1399,none,0.014360291,mp-778815,Li2CoP2O7,none,P2_1
1400,none,0.014374638,mp-780235,LiSn2(PO4)3,none,P-1
1401,fcc,0.01438153,mp-1176672,LiMn3O6,0.092,Cc
1402,fcc,0.01438796,mp-763974,Li8TiNi7O16,0.053,P1
1403,fcc,0.014399784,mp-773535,LiVFeO4,0,Imma
1404,fcc,0.014405696,mp-771274,Li24Ti5Cr7O36,0.065,P1
1405,fcc,0.014432107,mp-769719,Li4Cr3NiO8,0.043,P-1
1406,none,0.014478594,mp-31729,Li3Cr2(PO4)3,none,Cc
1407,fcc,0.014512615,mp-778877,Li5InO4,0.077,Pbca
1408,none,0.014513267,mp-767849,Li11Mn12(BO3)12,none,P1
1409,none,0.014529466,mp-21496,LiLa4CuO8,none,Cmmm
1410,none,0.0145308,mp-1178192,Li15V6(P8O29)2,none,P1
1411,fcc,0.014534231,mp-779799,Li24Mn5Cr7O36,0.067,P1
1412,none,0.014548832,mp-585297,Li2NiP2O7,none,C2/c
1413,none,0.014555196,mp-761470,Li2Mn2Si5O13,none,P-1
1414,none,0.014566028,mp-1176940,Li7Mn4(P2O7)4,none,P-1
1415,fcc,0.014568907,mp-758770,Li2Mg3Ti6O16,0.088,P2_1
1416,none,0.014586646,mp-27767,Li6Si2O7,none,P-42_1m
1417,none,0.014614979,mp-762628,LiFe(PO3)4,none,Cc
1418,none,0.014615909,mp-1176860,Li7V3P8O29,none,P1
1419,fcc,0.014636673,mp-771266,Li24Ti5Cr7O36,0.064,P1
1420,none,0.014637132,mp-849376,LiV2(PO4)3,none,P-1
1421,fcc,0.014637864,mp-690528,Li7(NiO2)8,0.07,P-1
1422,fcc,0.014641244,mp-860461,Li2VCrO4,0.044,P-1
1423,none,0.014650112,mp-1185277,K8Li31Al8O32,none,P1
1424,none,0.014668239,mp-772323,Li2Cr4O13,none,P2_1/c
1425,fcc,0.014674795,mp-773441,Li5Ni5(SnO6)2,0.021,C2
1426,fcc,0.014689225,mp-771354,Li24Ti7Cr5O36,0.063,P1
1427,fcc,0.014692327,mp-771215,Li4TiCrO6,0.064,P1
1428,none,0.014712706,mp-775278,Li2MnV3O8,none,P31c
1429,none,0.014739682,mp-1211185,Li3Ce2(BO3)3,none,P2_1/c
1430,none,0.014742982,mp-769575,Li6Co5(P2O7)4,none,P-1
1431,none,0.014763483,mp-780833,Li2MnSiO4,none,C222_1
1432,none,0.014781645,mp-765489,Li9V3P8O29,none,P1
1433,fcc,0.014792485,mp-771358,Li24Ti5Cr7O36,0.064,P1
1434,fcc,0.014802039,mp-770031,Li4Cr3NiO8,0,C2/m
1435,fcc,0.014804121,mp-771305,Li24Ti5Cr7O36,0.065,P1
1436,fcc,0.014825113,mp-775732,Li2MnFe3O8,0.068,P4_332
1437,none,0.014828566,mp-1176588,LiNiO2,none,Cmc2_1
1438,fcc,0.01485695,mp-764005,Li4TiV3O8,0,C2/m
1439,fcc,0.014857476,mp-774088,Li2NbCr3O8,0.069,R-3m
1440,none,0.014889265,mp-761474,LiFePO4,none,Pna2_1
1441,hcp,0.014941591,mp-776187,Li4Cr(WO4)3,0.081,P2
1442,fcc,0.014943495,mp-771300,Li24Ti7Cr5O36,0.064,P1
1443,none,0.014955363,mp-566781,LiFe(MoO4)2,none,P-1
1444,none,0.014959938,mp-1177028,Li7Mn4(P2O7)4,none,P1
1445,none,0.014972644,mp-540203,LiCo2P3O10,none,C2/c
1446,fcc,0.014976057,mp-18951,LiFePO4,0.119,Cmcm
1447,none,0.014976671,mp-1177074,Li7Mn4(P2O7)4,none,P1
1448,fcc,0.014988381,mp-685809,Li5Ti12O24,0.073,P3m1
1449,none,0.015046109,mp-780193,LiCr(PO3)3,none,P2_12_12_1
1450,fcc,0.015050782,mp-761525,Li17Ni11O28,0.061,P-1
1451,none,0.015050961,mp-769511,NaLiV2O6,none,P1
1452,none,0.015052468,mp-642650,LiP(HO)2,none,C2/m
1453,none,0.015080544,mp-761645,Li2Cr2Si4O11,none,P-1
1454,none,0.015083506,mp-761598,Li4Mn2Si3O10,none,C2/c
1455,none,0.015092936,mp-1190625,Li2Ti6O13,none,C2/m
1456,none,0.015103942,mp-580783,Li(MoO3)3,none,P-1
1457,none,0.015114982,mp-770764,Li2Fe(BO2)5,none,P2_1/c
1458,none,0.015116303,mp-31885,Li3Fe2P5O16,none,P2/c
1459,none,0.015124863,mp-771807,Li2Mn3NbO8,none,Cc
1460,fcc,0.015150591,mp-765439,Li3CoNi3O8,0.061,R-3m
1461,none,0.015162337,mp-1211170,LiHo6B3O14,none,P2_1/c
1462,none,0.015171477,mp-772108,LiTi11O20,none,P-1
1463,none,0.015171548,mp-767720,Li2V4Si4O13,none,P-1
1464,fcc,0.015178582,mp-771273,Li24Ti5Cr7O36,0.064,P1
1465,none,0.01518273,mp-540173,LiV(PO3)4,none,C2/c
1466,none,0.015188486,mp-28016,Li4Ge9O20,none,C2
1467,none,0.015192424,mp-1176941,Li7V3P8O29,none,P1
1468,none,0.015205149,mp-781754,Li3Mn2(P2O7)2,none,P1
1469,fcc,0.01520608,mp-766239,Li7V5O12,0.056,P-1
1470,none,0.015218209,mp-761469,LiFePO4,none,Pc
1471,none,0.015223575,mp-762893,LiFeSiO4,none,Cc
1472,fcc,0.015252724,mp-1177991,Li32Mn5Cr11O48,0.066,P1
1473,fcc,0.015274047,mp-771365,Li24Ti5Cr7O36,0.063,P1
1474,fcc,0.015279153,mp-771301,Li24Ti5Cr7O36,0.065,P1
1475,none,0.015289453,mp-762925,LiFeSiO4,none,Cc
1476,none,0.015296548,mp-26261,Li2Cu(PO3)4,none,C2/c
1477,fcc,0.015305382,mp-779786,Li32Mn5Cr11O48,0.066,C2
1478,none,0.015315042,mp-619770,LiIn(MoO4)2,none,P2_1/c
1479,fcc,0.015322336,mp-769826,Li5Fe3(SnO5)2,0.049,P-1
1480,none,0.015348278,mp-761646,Li2Cr2Si5O13,none,P-1
1481,fcc,0.015352493,mp-779959,Li3Co2(NiO4)2,0.068,P-1
1482,fcc,0.015390057,mp-705312,LiFePO4,0.119,Pna2_1
1483,fcc,0.015409169,mp-769574,Li7V6Ni5O24,0,P-1
1484,fcc,0.015443223,mp-1223324,Li2MoO3,0,P-1
1485,fcc,0.015465353,mp-1100541,Li9Mn7O16,0.066,P-1
1486,fcc,0.015492655,mp-776979,Li9(CoO4)2,0.098,Pca2_1
1487,fcc,0.015495232,mp-1222819,Li3CoRuO5,0.048,C2/m
1488,none,0.015510031,mp-850532,LiSn2(PO4)3,none,P2_12_12
1489,none,0.015517482,mp-1101604,Li2CrP2O7,none,C2/c
1490,none,0.015532945,mp-775484,Ba6Li2Ti16O39,none,C2/m
1491,none,0.015542208,mp-1177031,Li7Fe4(P2O7)4,none,P-1
1492,fcc,0.015554773,mp-771302,Li24Ti5Cr7O36,0.064,P1
1493,none,0.015560178,mp-763655,LiMn3O6,none,P1
1494,none,0.015572574,mp-771234,Li5Mn2Ni3O10,none,P-1
1495,none,0.015575526,mp-1176907,Li7Mn4(P2O7)4,none,P2_1
1496,fcc,0.015590257,mp-8001,LiAlO2,0.066,R-3m
1497,none,0.015600882,mp-1176957,Li7Mn4(P2O7)4,none,P1
1498,fcc,0.015608123,mp-771593,Li5Fe2Ni5O12,0.047,C2
1499,fcc,0.015647457,mp-775112,Li2CoSnO4,0.03,P2/m
1500,fcc,0.015647909,mp-771862,Li2Ti3VO8,0.074,R-3m
1501,none,0.015652682,mp-761527,LiMnPO4,none,Cc
1502,fcc,0.01566404,mp-771607,Li7Cr5O12,0.051,C2/m
1503,hcp,0.015713186,mp-1176813,LiFeSnO4,0.107,Pmc2_1
1504,fcc,0.015718159,mp-770277,Li4Cr3GaO8,0.045,P-1
1505,fcc,0.015793828,mp-773283,Li2Mn3FeO8,0.075,R-3m
1506,none,0.015798094,mp-1176670,LiV5(BO5)2,none,Pbam
1507,fcc,0.015803992,mp-770306,Li4Cr3GaO8,0.045,P-1
1508,none,0.015808986,mp-767872,Li3V4(PO4)6,none,P1
1509,fcc,0.015837883,mp-770241,Li4Cr3GaO8,0.045,P-1
1510,fcc,0.015838344,mp-772130,Li2Ti3NiO8,0.075,R-3m
1511,fcc,0.015843177,mp-770236,Li4Cr3GaO8,0.045,P-1
1512,none,0.015866929,mp-1176869,Li7V3P8O29,none,P1
1513,none,0.015866947,mp-681439,LiZr2(PO4)3,none,C2
1514,none,0.015868696,mp-1218614,Sr4Li(RuO4)3,none,P-1
1515,none,0.015876381,mp-769824,LiCoBO3,none,P-6
1516,fcc,0.015884367,mp-771684,LiMg2Mn3O8,0.076,R3m
1517,none,0.015920017,mp-850450,Li7Fe8(BO3)8,none,P1
1518,none,0.01592655,mp-1101530,LiMnP2O7,none,P2_1/c
1519,none,0.015935298,mp-761751,Li7V3P8O29,none,P1
1520,none,0.015960646,mp-763401,LiV(PO3)3,none,P2_12_12_1
1521,fcc,0.015960746,mp-769981,Li4Cr3GaO8,0.045,P-1
1522,fcc,0.015963817,mp-850183,Li3FeO4,0.074,I-43m
1523,fcc,0.015973417,mp-770030,Li4Cr3GaO8,0.045,P2/m
1524,fcc,0.015994023,mp-765904,Li2FeSiO4,0.091,I-42m
1525,fcc,0.015996759,mp-685797,Li6Ti9O20,0.077,C2/m
1526,fcc,0.016004737,mp-769759,Li4Cr3GaO8,0.045,C2/m
1527,fcc,0.016040375,mp-771355,Li5Ti2Mn8O20,0.081,C2/m
1528,fcc,0.016041442,mp-769631,Li2Mn3NiO8,0.081,R-3m
1529,fcc,0.01604532,mp-770336,Li4Cr3GaO8,0.045,P-1
1530,none,0.016046324,mp-26341,LiSbP2O7,none,P2_1
1531,fcc,0.016047827,mp-774249,Li3MnCr2O6,0.046,C2/m
1532,fcc,0.01606832,mp-771002,Li2TiVO4,0,P-1
1533,fcc,0.01606851,mp-765701,Li4V3FeO8,0,R-3m
1534,hcp,0.016083034,mp-530846,Li15Nb16O48,0.087,R3
1535,fcc,0.016086155,mp-775540,Li2Ni3SbO8,0.074,R-3m
1536,fcc,0.016099962,mp-1177123,Li5Ti2Fe3O10,0.059,P1
1537,none,0.016101706,mp-1176910,Li7Mn4(P2O7)4,none,P1
1538,none,0.016104177,mp-761601,Li2Mn(PO4)2,none,Pbca
1539,fcc,0.016105753,mp-1172980,Li17(CoO4)3,0.085,P1
1540,none,0.016112368,mp-561294,SrLi2Nb2O7,none,I4/mmm
1541,none,0.016161516,mp-762630,LiV2(PO4)3,none,P1
1542,none,0.016168745,mp-777694,Li4Ti3V5O16,none,P1
1543,fcc,0.016178174,mp-770253,Li4Cr3GaO8,0,C2/m
1544,fcc,0.016327834,mp-1222626,Li2MgZrO4,0.05,I-4m2
1545,none,0.016339862,mp-540257,Li2CoP2O7,none,P-1
1546,fcc,0.016355923,mp-775023,Li2Fe3SnO8,0.046,R-3m
1547,fcc,0.01638132,mp-777117,Li2MnNi3O8,0.073,P1
1548,fcc,0.016385947,mp-781106,Li32Mn5Cr11O48,0.067,C2
1549,none,0.016424106,mp-767709,Li2Mn3Si3O10,none,C2/c
1550,none,0.016464185,mp-853275,Li7Mn4(P2O7)4,none,P1
1551,none,0.016473926,mp-756544,LiLaO2,none,P2_1/c
1552,none,0.016486704,mp-504211,LiSn(PO3)3,none,P-1
1553,fcc,0.016488212,mp-771442,Li5Fe2Ni3O10,0.053,P-1
1554,none,0.016500391,mp-504206,LiV(PO3)5,none,P2_1/c
1555,none,0.016503452,mp-1176933,Li7Fe4(P2O7)4,none,P1
1556,none,0.016517854,mp-1100536,Li9Mn7O16,none,P-1
1557,none,0.016524584,mp-585354,LiCr2P3O10,none,P2_1/m
1558,fcc,0.016528533,mp-772783,Li2Mg3Ti6O16,0.085,P2_1
1559,none,0.016553405,mp-762150,LiTi2V3O12,none,P1
1560,none,0.016575775,mp-554003,Sr4Li(BO3)3,none,Ia-3d
1561,none,0.016585331,mp-1176857,Li7V3P8O29,none,Cc
1562,none,0.016598502,mp-775424,Na5Li4Ti5O14,none,P1
1563,none,0.016608381,mp-769999,Li4Cr3NiO8,none,P-1
1564,none,0.016610828,mp-26299,LiSnPO4,none,P2_1/c
1565,fcc,0.016655414,mp-769473,Li13Ni9O22,0.065,P-1
1566,fcc,0.016666831,mp-771191,Li5Co7O16,0.096,P2_1
1567,fcc,0.016668902,mp-775295,Li2MnCr3O8,0.075,R-3m
1568,none,0.016678742,mp-684427,LiSb(PO3)4,none,P2_1/c
1569,none,0.016689904,mp-773377,LiFePO4,none,Cc
1570,none,0.016692902,mp-765099,Li6V3P8O29,none,P-3c1
1571,none,0.016694437,mp-585339,LiCu2P5O16,none,Pc
1572,hcp,0.016704205,mp-764346,Li2FeSiO4,0.098,Pna2_1
1573,none,0.016709606,mp-1176911,Li7Mn4(P2O7)4,none,P2_1
1574,none,0.016722798,mp-1100553,Li9Mn7O16,none,P-1
1575,fcc,0.016729655,mp-778575,Li4Co3(NiO4)3,0.073,P-1
1576,fcc,0.016733855,mp-771920,Li4Fe3CoO8,0,R-3m
1577,fcc,0.016819746,mp-778043,Li32Ti3Cr13O48,0.065,P1
1578,fcc,0.016835604,mp-770249,Li4Cr3NiO8,0.042,P-1
1579,fcc,0.016837622,mp-779232,Li32Mn3Cr13O48,0.067,P1
1580,hcp,0.016841031,mp-772267,Li2AlFeO4,0.06,Pc
1581,none,0.016845006,mp-763542,Li3Ni2(CO3)4,none,P1
1582,none,0.016858411,mp-761913,Li7V3P8O29,none,P1
1583,none,0.016879707,mp-761632,Li7V3P8O29,none,P1
1584,fcc,0.016895833,mp-690633,LiNi4O5,0.021,I4/m
1585,fcc,0.016907174,mp-777614,Li32Ti3Cr13O48,0.065,P1
1586,none,0.01696119,mp-767993,Li2Fe(CO3)2,none,Fdd2
1587,none,0.016963474,mp-767340,LiMnO2,none,P-1
1588,none,0.016970945,mp-32523,LiV(PO3)4,none,Cc
1589,fcc,0.016982386,mp-771268,Li4TiCrO6,0.063,C2/c
1590,fcc,0.016987671,mp-778893,Li32Mn3Cr13O48,0.067,P1
1591,none,0.017010537,mp-851288,Li7V3P8O29,none,P1
1592,hcp,0.017017822,mp-775084,Li2SiNiO4,0.085,Pmn2_1
1593,none,0.017028834,mp-773072,Ba8LiNb7O24,none,P3m1
1594,hcp,0.017033401,mp-763629,Li2FeSiO4,0.098,Pc
1595,fcc,0.017078879,mp-777715,Li32Ti3Cr13O48,0.066,P1
1596,fcc,0.017079815,mp-1040361,LiMg30TiO32,0,P4/mmm
1597,fcc,0.017094093,mp-1174296,Li4Mn3O7,0.066,P-1
1598,none,0.017094518,mp-504233,Li4Ni5(P3O11)2,none,P2_1/c
1599,fcc,0.017110831,mp-861574,LiMnNbO4,0,P4_322
1600,fcc,0.017110916,mp-771277,Li24Ti5Cr7O36,0.064,P1
1601,none,0.017134163,mp-31618,Li3Co2P5O16,none,P2/c
1602,fcc,0.017136162,mp-777523,Li32Ti3Cr13O48,0.066,P1
1603,none,0.017138025,mp-32408,LiVP2O7,none,P1
1604,none,0.01713849,mp-1222986,Li3Fe(MoO4)3,none,Pc
1605,none,0.017146577,mp-764129,Li9V3P8O29,none,P1
1606,none,0.017169976,mp-27033,Li2SnP2O7,none,C2/c
1607,fcc,0.017171453,mp-771105,Li5Cu2Ni5O12,0.079,C2
1608,fcc,0.017173954,mp-765927,Li2CrCoO4,0,Imma
1609,none,0.017180514,mp-1100549,Li9Mn7O16,none,P-1
1610,none,0.017187247,mp-1100551,Li9Mn7O16,none,P-1
1611,fcc,0.017191497,mp-773292,Li3Mn(FeO3)2,0,C2/m
1612,none,0.017192144,mp-1100492,Li9Mn7O16,none,C2/m
1613,fcc,0.017200862,mp-770635,LiNiO2,0.069,I4_1/amd
1614,fcc,0.017206128,mp-778776,Li32Mn3Cr13O48,0.068,P1
1615,fcc,0.017208285,mp-778621,Li32Ti3Cr13O48,0.066,P1
1616,none,0.01721127,mp-1176838,Li7V4(PO4)6,none,R3
1617,fcc,0.017223295,mp-778415,Li32Mn3Cr13O48,0.067,P1
1618,none,0.017227757,mp-1177127,Li7Mn4(P2O7)4,none,P1
1619,fcc,0.017241494,mp-776318,Li2FeNi3O8,0.082,P1
1620,none,0.017243855,mp-763566,LiP2WO7,none,P2_1
1621,fcc,0.017248035,mp-1177968,Li2FeSnO4,0,C2/c
1622,none,0.017273257,mp-504358,LiCr6P7O24,none,P2_1/m
1623,fcc,0.017295725,mp-777524,Li32Ti3Cr13O48,0.065,P1
1624,fcc,0.017315142,mp-768038,Li2Mn3GaO8,0.074,R-3m
1625,none,0.017316127,mp-31996,LiMn2(PO4)3,none,P-1
1626,fcc,0.017319164,mp-770989,Li4Ni3SnO8,0,R-3m
1627,fcc,0.017328741,mp-779397,Li32Mn3Cr13O48,0.068,P1
1628,none,0.017331223,mp-777495,Li2VP2O7,none,P2_1
1629,fcc,0.017331254,mp-771923,Li6FeO4,0.076,P4_2/nmc
1630,fcc,0.017336609,mp-1177743,Li32Ti3Cr13O48,0.064,P1
1631,none,0.017342521,mp-705291,LiCrP2O7,none,P2_1/c
1632,fcc,0.017365293,mp-777910,Li32Ti3Cr13O48,0.066,P1
1633,hcp,0.017371789,mp-767851,Li2SiNiO4,0.12,Pnma
1634,none,0.017379448,mp-765570,Li2Mn(PO4)2,none,C2/c
1635,none,0.01738488,mp-770799,Li5NbO5,none,C2/c
1636,fcc,0.017399213,mp-770297,Li4Cr3NiO8,0.043,P-1
1637,none,0.017399825,mp-541661,LiZr2(PO4)3,none,R-3c
1638,none,0.017415203,mp-778543,LiNiBO3,none,P-6
1639,none,0.017424124,mp-1176845,Li7V3P8O29,none,P1
1640,fcc,0.017428381,mp-778896,Li32Mn3Cr13O48,0.068,P1
1641,none,0.017468891,mp-1176664,LiMn3(PO4)3,none,P1
1642,fcc,0.017469303,mp-775726,Li2Ni3SbO8,0.068,P4_332
1643,fcc,0.017474847,mp-761629,Li17V16O32,0,Cm
1644,none,0.017491957,mp-540237,Li14Ni9(P2O7)8,none,P-1
1645,fcc,0.017516988,mp-771626,Li5Ni7O12,0.053,C2
1646,fcc,0.017533372,mp-25516,Li(FeO2)2,0,Fd-3m
1647,fcc,0.017549438,mp-779375,Li32Mn3Cr13O48,0.067,P1
1648,none,0.017579534,mp-762141,Li7V3P8O29,none,P1