,anion_type,e_above_hull,mp_id,pretty_formula,rms,spacegroup.symbol
1649,none,0.017592085,mp-1191696,LiCr(MoO4)2,none,P-1
1650,fcc,0.017595637,mp-778542,Li32Ti3Cr13O48,0.066,P1
1651,none,0.017601224,mp-771223,Li5Mn3(SnO5)2,none,P-1
1652,fcc,0.017614369,mp-1177825,Li2V3WO8,0.067,P1
1653,fcc,0.017616703,mp-761741,LiCoSbO4,0,P4_322
1654,fcc,0.017619268,mp-779798,Li32Mn5Cr11O48,0.066,C2
1655,none,0.017676566,mp-1177026,Li7V3P8O29,none,P1
1656,none,0.017702909,mp-705470,Li3Mo4P5O24,none,Cc
1657,none,0.017740608,mp-1176849,Li7V3P8O29,none,Cc
1658,none,0.017764198,mp-1100557,Li9Mn7O16,none,P-1
1659,none,0.017765469,mp-689934,Li2CrP2O7,none,C2/c
1660,fcc,0.017778579,mp-779377,Li32Mn3Cr13O48,0.067,P1
1661,none,0.017805362,mp-764244,Li9V3P8O29,none,P1
1662,fcc,0.017823684,mp-778343,Li32Ti3Cr13O48,0.066,P1
1663,none,0.017828545,mp-771392,LiMn3(PO4)3,none,P1
1664,fcc,0.017837688,mp-18782,LiFeO2,0.057,I4_1/amd
1665,fcc,0.017844293,mp-770504,Li24MnCr11O36,0.066,P1
1666,fcc,0.017849117,mp-774090,LiTiFeO4,0.072,Imma
1667,none,0.017883425,mp-777597,NaLi2V3O9,none,C2
1668,none,0.017890056,mp-764135,Li2VP2O7,none,P2_1/c
1669,fcc,0.017890252,mp-779077,Li24TiCr11O36,0.066,P1
1670,none,0.017895346,mp-1100556,Li9Mn7O16,none,P-1
1671,none,0.017914452,mp-672959,Li2Cu(PO3)4,none,P-1
1672,none,0.017916644,mp-1020027,Li4P2O7,none,P2_1/c
1673,fcc,0.017919449,mp-779398,Li32Mn3Cr13O48,0.068,P1
1674,fcc,0.017921307,mp-769687,Li4TiCrO6,0.062,C2
1675,none,0.017929409,mp-1192295,Li3Al(BO3)2,none,P-1
1676,none,0.017930676,mp-770456,Li6Ti2O7,none,C2
1677,fcc,0.01793357,mp-1178077,Li24MnCr11O36,0.064,C2
1678,none,0.017960466,mp-1176691,LiMn3(PO4)3,none,P1
1679,none,0.017982163,mp-1176936,Li6Ti2O7,none,P2_1/c
1680,none,0.018005037,mp-850269,Li7Mn4(P2O7)4,none,P1
1681,none,0.018020551,mp-756781,Sr3Li2Nb4O13,none,I4/mmm
1682,hcp,0.018042428,mp-1222561,Li5Ga(GeO4)2,0.116,P2_1
1683,fcc,0.018046281,mp-765611,Li10Fe3Co7O20,0.052,P2/m
1684,fcc,0.018048977,mp-1175269,Li7Mn4CoO12,0.058,C2
1685,fcc,0.018051135,mp-1174220,Li4Mn3O7,0.064,P-1
1686,none,0.018106752,mp-1100481,Li9Mn7O16,none,P2/m
1687,none,0.018156525,mp-767744,Li2Ni(CO3)2,none,P1
1688,none,0.018158107,mp-762481,Li8V3P8O29,none,P1
1689,none,0.018158732,mp-763305,Li8FeO6,none,Cmc2_1
1690,fcc,0.018206521,mp-694974,Li7Mn16O32,0.09,P1
1691,none,0.018219663,mp-763800,Li3Mn2(PO4)3,none,P2_12_12
1692,fcc,0.018244689,mp-1101152,Li2MnCrO4,0.045,P2/m
1693,fcc,0.018246892,mp-770039,Li4Cr3NiO8,0.044,P-1
1694,hcp,0.018272038,mp-775846,Li4Mn(WO4)3,0.093,P2
1695,none,0.018273228,mp-705277,Li2Co(PO3)4,none,P2_1/c
1696,none,0.01828095,mp-1176687,LiMn3(PO4)3,none,P1
1697,fcc,0.018326923,mp-771279,Li4TiCrO6,0.063,C2
1698,none,0.01834945,mp-1101544,Li2Cr5(PO4)4,none,P-1
1699,bcc,0.018366578,mp-765875,LiMnPO4,0.167,I-4
1700,none,0.018402545,mp-1174248,Li4Mn3O7,none,P-1
1701,none,0.018428667,mp-770678,Li2Cr2O7,none,P2_1/c
1702,hcp,0.018434849,mp-1222358,LiNbWO6,0.135,R3
1703,fcc,0.018462898,mp-779761,Li32Ti5Cr11O48,0.065,C2
1704,fcc,0.018464554,mp-767653,LiNi6O7,0.012,P-1
1705,none,0.018484111,mp-1100540,Li9Mn7O16,none,P-1
1706,hcp,0.018486122,mp-767490,Li9Ti12NbO30,0.085,R3
1707,none,0.018496342,mp-767555,LiVSiO4,none,Pbcn
1708,none,0.018498328,mp-1176872,Li7V3P8O29,none,P1
1709,fcc,0.018526022,mp-771730,Li4MgNi3O8,0,R-3m
1710,none,0.018532226,mp-776871,Li2V5O12,none,Pbcn
1711,none,0.018575236,mp-1177178,Li9Mn21O40,none,F222
1712,fcc,0.018579856,mp-777836,Li14Co13O28,0.063,P-1
1713,none,0.018590258,mp-1020030,LiAl(GeO3)2,none,P2_1/c
1714,none,0.018597976,mp-769786,Li4CrO4,none,P-1
1715,none,0.018623772,mp-672958,LiSb(PO3)4,none,Pbcn
1716,none,0.018624066,mp-1177038,Li7V3P8O29,none,P1
1717,fcc,0.01862597,mp-771176,Li2CoSnO4,0,Imma
1718,none,0.018642091,mp-1176871,Li7V3P8O29,none,P1
1719,fcc,0.018642436,mp-779180,Li32Mn3Cr13O48,0.067,P1
1720,fcc,0.018659747,mp-849680,Li2CuNiO4,0.062,I-4m2
1721,fcc,0.018660279,mp-770231,Li4Cr3NiO8,0.044,P-1
1722,fcc,0.018661652,mp-769772,Li2CrO3,0.066,C2/m
1723,fcc,0.018666742,mp-765648,Li2Ni3SnO8,0.087,P4_32_12
1724,hcp,0.01869343,mp-1221192,Na4LiNb5O15,0.178,R3
1725,none,0.018705681,mp-763470,Li2CoSiO4,none,P2_1/c
1726,fcc,0.018711381,mp-771531,Li5Fe7O12,0.036,C2
1727,none,0.018718561,mp-780911,Li2Mn(PO3)4,none,P2_1/c
1728,none,0.018732201,mp-32383,Li2NiP2O7,none,P1
1729,none,0.018734453,mp-773637,Li6V3P8O29,none,P1
1730,none,0.018756122,mp-1211177,Li4CuSbO6,none,C2/c
1731,fcc,0.018760236,mp-770667,Li24MnCr11O36,0.069,C2
1732,none,0.018782871,mp-1174337,Li4Mn3O7,none,C2/m
1733,fcc,0.01878753,mp-775461,Li2V3FeO8,0.07,P4_32_12
1734,none,0.018795104,mp-32320,Li4Ni(PO4)2,none,P2_1/c
1735,hcp,0.01879966,mp-763610,LiCrSiO4,0.109,Pnma
1736,none,0.018801874,mp-764381,Li4CuNi3O8,none,C2/m
1737,none,0.018803597,mp-777029,LiV2(PO4)3,none,P2_1/c
1738,fcc,0.018867901,mp-771402,Li5FeO4,0.082,P2_1/c
1739,none,0.018911993,mp-1176866,Li7V3P8O29,none,P1
1740,none,0.018919645,mp-540168,Li3Co3(PO4)4,none,P1
1741,fcc,0.018940683,mp-770973,Li24MnCr11O36,0.07,C2
1742,fcc,0.018965379,mp-765438,Li3Cr3CoO8,0.062,R-3m
1743,none,0.018988954,mp-540503,Li6V3P8O29,none,Cc
1744,none,0.019000297,mp-1100526,Li9Mn7O16,none,P-1
1745,none,0.019000342,mp-695791,LiMo(PO3)5,none,P2_1/c
1746,none,0.019036552,mp-697758,LiFeP2O7,none,P2_1/c
1747,none,0.01904045,mp-1100581,Li9Mn7O16,none,P2/m
1748,fcc,0.019044244,mp-1175354,Li7Mn5O12,0.067,C2/m
1749,fcc,0.01904723,mp-769686,Li4TiCrO6,0.062,C2/c
1750,none,0.019047729,mp-772085,LiNb10O18,none,P2_1/c
1751,none,0.01906411,mp-779028,Li7Mn8(BO3)8,none,P1
1752,none,0.01907079,mp-1100497,Li9Mn7O16,none,C2/m
1753,none,0.019077014,mp-762581,LiFeSiO4,none,Pna2_1
1754,fcc,0.01908049,mp-771741,Li2Mn3CuO8,0.084,R-3m
1755,none,0.019108724,mp-1176881,Li7V3P8O29,none,P1
1756,none,0.019118518,mp-775093,Li5CoO4,none,Aea2
1757,hcp,0.019151455,mp-765699,Li3Fe(PO4)2,0.126,P2_1/m
1758,none,0.019171393,mp-761625,Li7V3P8O29,none,P1
1759,none,0.01917535,mp-772439,Li3AlFeO4,none,I4_1/a
1760,none,0.019192774,mp-1100554,Li9Mn7O16,none,P-1
1761,fcc,0.019196542,mp-767264,Li2Ni5O7,0.03,C2/m
1762,none,0.019207445,mp-1174244,Li4Mn3O7,none,P-1
1763,none,0.019212357,mp-1101532,LiCr2(PO4)3,none,Cc
1764,fcc,0.019245035,mp-763788,Li5Mn3(FeO5)2,0.061,P-1
1765,fcc,0.019249084,mp-771353,Li24Ti5Cr7O36,0.064,P1
1766,fcc,0.019269776,mp-1222873,Li2Al(NiO2)3,0.053,C2
1767,fcc,0.019274579,mp-868821,Li2TiCr3O8,0.072,P4_332
1768,fcc,0.019300173,mp-761436,Li7Ni5O12,0.049,P-1
1769,none,0.01934632,mp-773932,Li6V3P8O29,none,P1
1770,fcc,0.019358077,mp-1178007,Li2V3FeO8,0.071,P4_3
1771,none,0.019372336,mp-765816,Li3Mn(PO4)2,none,C2/c
1772,none,0.019388975,mp-1223302,Li7Ta24O64,none,Pm
1773,fcc,0.019392904,mp-1175187,Li7Mn4CoO12,0.065,P1
1774,none,0.019406436,mp-764191,Li9V3P8O29,none,P1
1775,none,0.019413159,mp-781628,Li7Mn8(BO3)8,none,P1
1776,none,0.019415136,mp-773558,Li6V3P8O29,none,P1
1777,none,0.019443078,mp-1176923,Li6V3P8O29,none,P1
1778,fcc,0.019443569,mp-774032,LiCr2O4,0.078,P1
1779,fcc,0.019450866,mp-1178390,Li32Ti5Cr11O48,0.065,P1
1780,none,0.01945413,mp-779303,Li7Mn8(BO3)8,none,P1
1781,none,0.01949502,mp-761599,Li4MnP2O9,none,C2/m
1782,none,0.019508876,mp-777671,Li7Mn8(BO3)8,none,P1
1783,none,0.019524354,mp-32395,Li2Ni3(P2O7)2,none,P-1
1784,none,0.019559306,mp-1176918,Li6V3P8O29,none,P1
1785,none,0.019584259,mp-1176863,Li7V3P8O29,none,P1
1786,fcc,0.019591398,mp-774128,Li2TiV3O8,0.068,R-3m
1787,fcc,0.019630931,mp-771490,Li5Mn5(SnO6)2,0.036,C2
1788,none,0.01964665,mp-779296,Li7Mn8(BO3)8,none,P1
1789,fcc,0.019662421,mp-771629,Li2MgMn3O8,0.082,R-3m
1790,none,0.019667328,mp-850775,Li7Mn8(BO3)8,none,P1
1791,fcc,0.019678638,mp-765709,Li5Ti2Fe3O10,0.06,P-1
1792,none,0.019680807,mp-773129,LiSn2(PO4)3,none,Pca2_1
1793,fcc,0.019688051,mp-762583,Li3MnNi3O8,0.074,C2/m
1794,fcc,0.019705422,mp-779181,LiNbNiO4,0,P4_322
1795,none,0.019707518,mp-1100514,Li9Mn7O16,none,P-1
1796,hcp,0.019709327,mp-768020,Li2MnSiO4,0.096,Pna2_1
1797,none,0.019717193,mp-26649,Li2SnP2O7,none,P-1
1798,none,0.019723763,mp-1177043,Li7Mn4(P2O7)4,none,Pc
1799,none,0.019724709,mp-1176914,Li6V3P8O29,none,P1
1800,none,0.019733345,mp-1174288,Li4Mn3O7,none,P-1
1801,fcc,0.019760591,mp-1173962,Li3Mn2O5,0.067,P-1
1802,none,0.019772256,mp-1176897,Li7V3P8O29,none,C2/c
1803,none,0.019775948,mp-1223129,Li4SiO4,none,P2_1
1804,hcp,0.019777257,mp-763512,Li2CoSiO4,0.14,P2_1/c
1805,none,0.019784629,mp-767049,LiVSiO4,none,Pnma
1806,none,0.019795256,mp-773531,Li6V3P8O29,none,P-1
1807,fcc,0.019795894,mp-868928,Li6Mn9O20,0.081,C2/m
1808,fcc,0.019806669,mp-774192,Li2VO3,0.064,P-1
1809,fcc,0.019832106,mp-773418,Li2NiSnO4,0.057,I-4m2
1810,none,0.019833355,mp-561336,Li2Mg2Si4O11,none,P-1
1811,none,0.019844398,mp-1176908,Li6V3P8O29,none,P1
1812,fcc,0.019848819,mp-774126,Li3Ni4SbO8,0,C2/m
1813,fcc,0.019858952,mp-774164,Li2V3SnO8,0.079,P4_32_12
1814,none,0.019860755,mp-774609,Na5Li3Ti5O14,none,P1
1815,none,0.019909166,mp-1177041,Li6V3P8O29,none,P1
1816,none,0.01992231,mp-1176850,Li7V3P8O29,none,P1
1817,none,0.019923043,mp-25542,LiMnO2,none,Cm
1818,none,0.019931007,mp-1100505,Li9Mn7O16,none,C2/m
1819,none,0.019935581,mp-753403,LiCu2(CO3)2,none,P-1
1820,none,0.019948696,mp-1100499,Li9Mn7O16,none,C2/m
1821,none,0.019950768,mp-778694,Li7Mn8(BO3)8,none,P1
1822,fcc,0.019952409,mp-763300,LiFeO2,0.047,Pmmn
1823,none,0.019965351,mp-26271,Li2Sn(PO3)4,none,P2_1/c
1824,hcp,0.019975919,mp-3368,LiNb3O8,0.069,P2_1/c
1825,none,0.019989449,mp-9406,Li2La2Ti3O10,none,I4/mmm
1826,fcc,0.019990215,mp-1036537,LiMg14AlO16,0.036,Pmmm
1827,fcc,0.020008553,mp-767027,Li4FeSi2O7,0.101,C2
1828,fcc,0.02001509,mp-691123,Li7Mn10O24,0.081,C2
1829,none,0.020025121,mp-778813,Li7Mn8(BO3)8,none,P1
1830,fcc,0.02002532,mp-780192,Li5FeO4,0.085,P1
1831,none,0.020051174,mp-763873,Li2Ni(CO3)2,none,P2_1/c
1832,none,0.02009784,mp-773963,Li6V3P8O29,none,P1
1833,none,0.020110356,mp-758115,Li2SnP2O7,none,P2_1/c
1834,none,0.020126462,mp-19373,LiVO3,none,C2/c
1835,fcc,0.020143365,mp-774245,Li5Mn5(NiO6)2,0.061,C2
1836,none,0.020149629,mp-541476,Li2Cr(H2O3)2,none,P2_12_12_1
1837,fcc,0.020150035,mp-1177849,Li2TiCr3O8,0.07,R-3m
1838,none,0.020170138,mp-779356,Li7Mn8(BO3)8,none,P1
1839,none,0.020187693,mp-777030,Li6Mn3P8O29,none,P1
1840,fcc,0.020191804,mp-1037661,LiYMg30O32,0,P4/mmm
1841,none,0.020192645,mp-762557,Li2FeSiO4,none,Pna2_1
1842,fcc,0.020209138,mp-1222534,Li4AlNi3O8,0.05,R-3m
1843,none,0.020212741,mp-1178040,Li2Cr3(CuO6)2,none,Pbcn
1844,none,0.020222343,mp-773952,LiP5WO15,none,P2_1/c
1845,none,0.020280673,mp-779313,Li7Mn8(BO3)8,none,P1
1846,none,0.020286555,mp-1173947,Li3Mn2O5,none,P-1
1847,none,0.02028668,mp-1176906,Li6V3P8O29,none,Cc
1848,none,0.020288471,mp-762616,Li2Mn2(PO4)3,none,P-1
1849,fcc,0.020300401,mp-770727,Li3Al2FeO6,0.059,C2/m
1850,hcp,0.020302389,mp-769767,Li2CrO4,0.112,Pmn2_1
1851,hcp,0.020311413,mp-1078377,LiNbO3,0.081,R-3
1852,fcc,0.020318077,mp-777927,Li24TiCr11O36,0.067,C2
1853,none,0.020336458,mp-1177121,Li7Fe4(PO4)6,none,P1
1854,hcp,0.020346031,mp-996987,LiCuO2,0.11,Pnnm
1855,none,0.020391433,mp-777185,Li4V2(PO4)3,none,P-1
1856,none,0.020395109,mp-780308,Li5Mn6(BO3)6,none,P1
1857,none,0.020411516,mp-764051,Li5Ti2Mn3O10,none,P1
1858,none,0.020435704,mp-540028,LiVP2O7,none,P2_1/c
1859,none,0.020471694,mp-558713,LiAlSiO4,none,P6_222
1860,fcc,0.020488078,mp-1036089,LiMg14MnO16,0,P4/mmm
1861,none,0.020536783,mp-762619,Li4Mn3(PO4)4,none,P1
1862,fcc,0.020564015,mp-765813,Li2FeNiO4,0.056,I-4m2
1863,fcc,0.020589907,mp-1173952,Li3Mn2O5,0.067,C2/m
1864,none,0.020601144,mp-769440,Li7Mn8O20,none,C2/m
1865,none,0.020607717,mp-775642,Li3Mn2V3O12,none,P2_1/c
1866,none,0.020651574,mp-769681,Li4Fe(BO3)2,none,Pnnm
1867,hcp,0.020664403,mp-771633,Li3Mn(PO4)2,0.126,P2_1/m
1868,fcc,0.020675884,mp-762677,Li8(NiO2)11,0.083,P1
1869,fcc,0.020700945,mp-1175313,Li7Mn5O12,0.065,P-1
1870,none,0.02070703,mp-773609,Li6V3P8O29,none,P1
1871,none,0.020714249,mp-853221,Li2Cr2(PO4)3,none,P-1
1872,fcc,0.020728777,mp-774011,Li7Mn12Cu5O32,0.084,R3
1873,none,0.020730628,mp-773934,Li6V3P8O29,none,P1
1874,none,0.020749877,mp-694722,Li2NiP2O7,none,P-1
1875,none,0.02079112,mp-1176903,Li6V3P8O29,none,C2
1876,none,0.020810608,mp-1176930,Li6V3P8O29,none,P1
1877,fcc,0.020812501,mp-762882,Li8FeNi9O20,0.06,P-1
1878,fcc,0.020828402,mp-771655,Li3V2CrO6,0.042,C2/m
1879,fcc,0.020831406,mp-1178068,Li24TiCr11O36,0.062,C2
1880,fcc,0.020835517,mp-1037085,LiMg30CoO32,0,P4/mmm
1881,none,0.02087141,mp-1176904,Li6V3P8O29,none,C2
1882,fcc,0.020905147,mp-1037656,LiYMg30O32,0,P4/mmm
1883,none,0.020915838,mp-1176922,Li6V3P8O29,none,P1
1884,none,0.020927201,mp-1174285,Li4Mn3O7,none,P-1
1885,fcc,0.02094212,mp-770985,Li24MnCr11O36,0.068,P1
1886,none,0.020946782,mp-767222,LiFe2(PO4)2,none,Cm
1887,none,0.020965191,mp-770688,Li4CrO5,none,C2/c
1888,hcp,0.020989299,mp-775097,Li2CoO2,0.023,P-3m1
1889,fcc,0.020994303,mp-1178047,Li2Cr3WO8,0.064,R-3m
1890,none,0.021015943,mp-765369,Li7V3P8O29,none,C2/c
1891,fcc,0.021016099,mp-997512,Li3Cr2CuO6,0,C2/m
1892,none,0.021016851,mp-1101602,LiCr2(PO4)3,none,P2/c
1893,fcc,0.021029418,mp-1176802,LiCr2O4,0.071,P4_322
1894,fcc,0.021109315,mp-780842,Li24TiCr11O36,0.066,C2
1895,none,0.021130617,mp-547017,LiAlAs2O7,none,C2
1896,none,0.021150052,mp-765114,Li2Fe(CO3)2,none,P2_1/c
1897,fcc,0.021156795,mp-758044,Li5Ti8O16,0.067,P1
1898,none,0.021166036,mp-1177035,Li6V3P8O29,none,Cc
1899,none,0.021170752,mp-761543,Li7V3P8O29,none,Cc
1900,none,0.021175602,mp-863896,Li3Mn(PO4)2,none,P2_1/c
1901,fcc,0.021186314,mp-772251,Li3Mn4NiO8,0,C2/m
1902,fcc,0.021195841,mp-1178003,Li2MnCo3O8,0.075,P4_332
1903,fcc,0.021227446,mp-25417,LiTiO2,0,R-3m
1904,fcc,0.021248417,mp-1177006,Li8Fe9CoO20,0.058,P2/m
1905,none,0.021271031,mp-778319,LiMnP2O7,none,P2_1/c
1906,fcc,0.021274826,mp-775448,Li2Ti3NiO8,0.062,P2_13
1907,none,0.021300273,mp-1101663,NaLi15V16O48,none,C2
1908,none,0.021306516,mp-24148,LiLa2HO3,none,Immm
1909,none,0.02131504,mp-26113,LiTi(PO3)4,none,Pbcn
1910,fcc,0.021330886,mp-771842,Li3Cr2NiO6,0.014,C2/m
1911,none,0.021367086,mp-695780,Li2MnP2O7,none,P-1
1912,none,0.021374324,mp-632692,LiFe4(PO4)4,none,P1
1913,none,0.021376949,mp-672976,LiSn(PO3)3,none,P-1
1914,hcp,0.021393653,mp-780748,LiVCoO4,0.091,Pnma
1915,none,0.021394649,mp-540242,LiMnP2O7,none,P-1
1916,none,0.021399697,mp-1177071,Li6V3P8O29,none,Cc
1917,none,0.021404571,mp-1100555,Li9Mn7O16,none,P-1
1918,none,0.021422355,mp-1100523,Li9Mn7O16,none,P-1
1919,none,0.021432165,mp-762915,Li2(NiO2)3,none,P-1
1920,fcc,0.021443558,mp-705828,Li23Ni17O40,0.059,P-1
1921,none,0.021445601,mp-1176935,Li6V3P8O29,none,P1
1922,none,0.021457123,mp-1174312,Li4Mn3O7,none,P-1
1923,none,0.021457913,mp-1176823,Li8V3P8O29,none,Cc
1924,none,0.021504468,mp-585308,Li3Co2(PO4)3,none,P2_1/c
1925,none,0.021544673,mp-773962,Li6V3P8O29,none,P1
1926,none,0.021548459,mp-758382,Li7(CuO2)6,none,P-1
1927,none,0.021582992,mp-780156,Li5Mn6(BO3)6,none,P1
1928,none,0.021603987,mp-1174294,Li4Mn3O7,none,P-1
1929,none,0.021636428,mp-1176870,Li7V3P8O29,none,P1
1930,none,0.021642339,mp-1177106,Li6V3P8O29,none,P1
1931,none,0.02164338,mp-1101551,Li3Mn3(PO4)4,none,C2/c
1932,none,0.021667695,mp-26281,Li3Sb5(PO4)6,none,P1
1933,none,0.021674839,mp-772597,Li2CuNiO4,none,C2/c
1934,none,0.021689091,mp-540223,Li2MnP2O7,none,P2_1/c
1935,none,0.021724702,mp-1176577,LiV(PO3)4,none,C2/c
1936,fcc,0.021728737,mp-1222545,Li3Ti8O16,0.073,P-4m2
1937,none,0.021752852,mp-1212253,LiEu(MoO4)2,none,P2/c
1938,none,0.021761729,mp-1176927,Li6V3P8O29,none,P1
1939,none,0.021762714,mp-765212,Li6V3P8O29,none,P1
1940,fcc,0.021762928,mp-1100519,Li9Mn7O16,0.043,P-1
1941,none,0.021769649,mp-863362,LiTa3O8,none,Pmn2_1
1942,none,0.021773354,mp-773956,Na2Li(NiO2)3,none,C2/m
1943,fcc,0.021777476,mp-767086,Li5MgTi12O24,0.066,P3m1
1944,none,0.021779825,mp-540269,LiMoP2O7,none,P-1
1945,none,0.021799694,mp-764348,LiFeSiO4,none,P2_1/c
1946,hcp,0.021806466,mp-19695,LiGa(WO4)2,0.022,P2/c
1947,fcc,0.021813493,mp-1177906,Li2Ti3CoO8,0.066,P4_332
1948,none,0.021823912,mp-1176905,Li6V3P8O29,none,C2
1949,none,0.021835127,mp-771870,LiMn2(PO4)2,none,P-1
1950,fcc,0.0218513,mp-765722,Li4Mn3NiO8,0,C2/m
1951,none,0.021861402,mp-773693,Li6V3P8O29,none,P1
1952,none,0.021900608,mp-849355,LiMnP2O7,none,P1
1953,none,0.02191265,mp-1177111,Li6V3P8O29,none,P1
1954,none,0.021924274,mp-32476,LiVP2O7,none,P2_1/c
1955,none,0.021947557,mp-775291,Li2Mn2Cr3O12,none,Pbcn
1956,none,0.021949379,mp-1176722,LiMn2(PO4)2,none,P-1
1957,none,0.021950341,mp-773379,Li6V3P8O29,none,P1
1958,none,0.021950834,mp-567070,LiMoAsO6,none,P2_1
1959,none,0.021979901,mp-775194,Li2Fe3WO8,none,Cmc2_1
1960,fcc,0.021979974,mp-765516,Li8Mn9O18,0.068,P1
1961,none,0.021994637,mp-778325,Li2TiV3O8,none,Cc
1962,none,0.021995323,mp-697850,Li2Cr(PO3)4,none,P2_1/c
1963,fcc,0.022000932,mp-773500,LiMnCuO4,0.077,Imma
1964,none,0.022001405,mp-695805,Li2FeP2O7,none,P-1
1965,fcc,0.02200311,mp-557328,Li3Zn2SbO6,0.05,C2/m
1966,fcc,0.02201767,mp-771453,Li5Ti2Fe5O12,0.054,C2
1967,none,0.022029813,mp-1220781,NaLi3V4O12,none,C2
1968,hcp,0.022031609,mp-756531,LiNd6(CuO6)2,0,C2/m
1969,none,0.022034211,mp-996992,LiAgO2,none,C2/m
1970,none,0.022034968,mp-704284,Li6Mn3P8O29,none,P1
1971,none,0.022047079,mp-761508,Li6V3P8O29,none,P1
1972,none,0.022047364,mp-761394,Li4Fe2Si3O10,none,C2/c
1973,none,0.022052716,mp-765175,Li6V3P8O29,none,P1
1974,none,0.022069995,mp-760590,Li5(CuO2)3,none,P1
1975,none,0.022088085,mp-762168,LiNiPO4,none,Pnma
1976,fcc,0.022101834,mp-771991,Li6NiO4,0.074,Pmmn
1977,none,0.022107233,mp-1204473,Li3V5(H8O11)2,none,Pnnm
1978,none,0.022107498,mp-773684,Li6V3P8O29,none,Cc
1979,fcc,0.022115774,mp-1177495,Li4Co3SbO8,0.048,C2/m
1980,fcc,0.022136219,mp-765432,Li2V3CoO8,0.065,R3m
1981,none,0.022138538,mp-777002,Li4V5Cr3O16,none,Cm
1982,none,0.022145042,mp-764896,Li7Fe8(BO3)8,none,P1
1983,none,0.022155836,mp-773384,Li6V3P8O29,none,Cc
1984,fcc,0.022165194,mp-861577,Li2VO3,0.059,C2/m
1985,none,0.022174838,mp-705056,LiVP2O7,none,P1
1986,none,0.02225259,mp-774230,Li4Ti5V3O16,none,Cm
1987,none,0.02225949,mp-772452,Li6V3P8O29,none,P1
1988,none,0.022259936,mp-1174308,Li4Mn3O7,none,P-1
1989,none,0.02228164,mp-540200,LiCr(PO3)4,none,C2/c
1990,none,0.022284224,mp-1012789,LiCr3P3O13,none,P2_1/m
1991,fcc,0.022287406,mp-698666,Li2MoO3,0,P1
1992,none,0.022302192,mp-1178015,Li2Fe2(PO4)3,none,P1
1993,none,0.022307778,mp-765387,LiV(CO3)2,none,P2_1/c
1994,fcc,0.022308131,mp-1175308,Li7Mn5O12,0.045,P-1
1995,fcc,0.022328085,mp-776112,Li2Fe3NiO8,0.07,P4_332
1996,none,0.022329297,mp-26267,Li2Cu(PO3)4,none,Pnma
1997,hcp,0.022341249,mp-767687,Li4Si2NiO7,0.099,Cc
1998,none,0.022349036,mp-1176928,Li6V3P8O29,none,P1
1999,none,0.022356684,mp-31806,LiFe3(P3O10)2,none,C222_1
2000,hcp,0.022361998,mp-767896,Li2SiNiO4,0.146,Pnma
2001,none,0.022364238,mp-782643,Li5Mn6(BO3)6,none,P1
2002,none,0.022367595,mp-1100562,Li9Mn7O16,none,P-1
2003,none,0.022377306,mp-1176917,Li6V3P8O29,none,P1
2004,fcc,0.022379232,mp-1177993,Li2Mn3SnO8,0.083,P2_12_12_1
2005,none,0.022387192,mp-761529,Li6V3P8O29,none,Cc
2006,fcc,0.022392965,mp-531914,Li3Ti8O16,0.075,Pmmn
2007,fcc,0.022403977,mp-1174190,Li4Mn3CoO8,0,P-1
2008,none,0.022412446,mp-771608,Li3V6O16,none,Pm
2009,none,0.022422272,mp-765799,LiNi4(PO4)3,none,Cmc2_1
2010,none,0.022426522,mp-558808,LiAl(SiO3)2,none,P1
2011,none,0.022431163,mp-773783,Li6V3P8O29,none,P1
2012,none,0.022469865,mp-1176853,Li7V3P8O29,none,P1
2013,hcp,0.022479724,mp-25088,LiIn(MoO4)2,0.031,C2/c
2014,fcc,0.022494805,mp-1175363,Li7Mn5O12,0.045,P2/m
2015,fcc,0.022497212,mp-775165,Li2Mn3CuO8,0.084,P2_12_12_1
2016,none,0.022520845,mp-851102,LiTa3O8,none,Pm
2017,fcc,0.02252781,mp-780678,Li4Co2Ni3O10,0.061,P2/m
2018,none,0.022531644,mp-1176919,Li6V3P8O29,none,P1
2019,none,0.022539669,mp-761757,Li8V3P8O29,none,P-1
2020,none,0.022541619,mp-771583,LiMn2O4,none,P6_3mc
2021,none,0.022550334,mp-556544,LiAlSiO4,none,Pc
2022,fcc,0.022558308,mp-756645,Li5Ti3O8,0,R-3m
2023,none,0.022577031,mp-1222776,Li3(WO3)8,none,Pmmm
2024,fcc,0.022586328,mp-1177487,Li47(CoO4)8,0.067,P1
2025,none,0.02259519,mp-540212,Li3Mo(PO3)8,none,C2
2026,none,0.022606195,mp-1100517,Li9Mn7O16,none,P-1
2027,none,0.022610989,mp-771259,LiMn2(PO4)2,none,P2/c
2028,none,0.02262187,mp-31519,LiCoP2O7,none,C2