,anion_type,e_above_hull,mp_id,pretty_formula,rms,spacegroup.symbol
886,none,0.006383432,mp-763531,LiP3(WO6)2,none,C2
887,fcc,0.006387937,mp-769608,Li4VCr3O8,0.043,P-1
888,none,0.006416659,mp-761561,LiCr(SiO3)2,none,Pbca
889,none,0.006463297,mp-1101431,RbLiMn3O4,none,Cm
890,fcc,0.006465163,mp-769856,Li4Fe3NiO8,0,R-3m
891,fcc,0.006491228,mp-1176793,Li9Mn12Ni3O32,0.085,R32
892,fcc,0.006498208,mp-769611,Li4V3CrO8,0.04,P-1
893,fcc,0.006499107,mp-774263,Li13Ti28O56,0.07,R3
894,fcc,0.006510249,mp-777709,Li32Ti13Cr3O48,0.062,P1
895,none,0.006526855,mp-1003549,LiMn16O32,none,Pm
896,none,0.006561348,mp-3552,Li2Si2O5,none,Pbcn
897,none,0.006563368,mp-585432,LiMnPO4,none,Cc
898,fcc,0.006581745,mp-777982,Li32Ti13Cr3O48,0.062,P1
899,fcc,0.006596654,mp-769614,Li4V3CrO8,0.041,P-1
900,fcc,0.006602782,mp-1177811,Li32Ti13Cr3O48,0.062,P1
901,fcc,0.006616595,mp-706714,Li9Mn15O32,0.09,P1
902,fcc,0.006621028,mp-769617,Li2VCrO4,0.044,P-1
903,none,0.006630016,mp-540121,LiMn6PO12,none,I4_1/acd
904,none,0.006649524,mp-942733,Li7La3Zr2O12,none,I4_1/acd
905,fcc,0.006676165,mp-772030,LiTiO2,0,Imma
906,fcc,0.006688568,mp-769545,Li10FeNi9O20,0.055,P-1
907,none,0.006691039,mp-540108,LiMnPO4,none,Cc
908,fcc,0.006693864,mp-770529,Li8Mn15CrO32,0.114,P1
909,hcp,0.006712341,mp-849394,Li2MnSiO4,0.1,Pc
910,fcc,0.006732192,mp-774528,Li11Ti24O48,0.069,Cm
911,fcc,0.00676031,mp-769615,Li4V3CrO8,0.041,P-1
912,none,0.006760407,mp-761338,LiVPO4,none,Pbcn
913,none,0.006782435,mp-703343,Li2Sn(H5O4)2,none,P2_1/c
914,none,0.006784727,mp-763561,Li2P2WO8,none,P2_1/c
915,none,0.006787953,mp-31541,LiCoPO4,none,R3
916,fcc,0.006797198,mp-769635,Li2VCrO4,0.045,P-1
917,none,0.006804392,mp-773180,Li4Mn3Sn5O16,none,Cm
918,none,0.006818985,mp-585433,LiFePO4,none,Cc
919,none,0.006835915,mp-559627,LiP3PbO9,none,P-1
920,none,0.006836609,mp-743649,Li2Cr2H4O9,none,C2/c
921,none,0.006839326,mp-559300,KLi(PO3)2,none,P2_1/c
922,hcp,0.006858308,mp-675069,LiNbO3,0.084,P1
923,fcc,0.006862793,mp-774300,Li3CoNi3O8,0.075,P-1
924,hcp,0.006894677,mp-761727,LiCoPO4,0.166,Pna2_1
925,fcc,0.006912452,mp-775825,Li2VCrO4,0.041,P2/m
926,fcc,0.00692802,mp-777496,Li32Ti13Cr3O48,0.062,P1
927,none,0.006928183,mp-762698,LiMn(PO3)3,none,P2_12_12_1
928,fcc,0.006937294,mp-769980,Li4AlCr3O8,0.051,P-1
929,none,0.006961223,mp-779056,Li2FeP2O7,none,P2_1
930,none,0.006962779,mp-504189,Li3Fe3(PO4)4,none,P1
931,fcc,0.006990347,mp-1177856,Li2TiV3O8,0.066,P4_32_12
932,fcc,0.006998328,mp-775327,Li2MnV3O8,0.096,P2_13
933,bcc,0.007009157,mp-14232,LiBO2,0.165,I-42d
934,none,0.007009921,mp-776510,Li3Sb3P8O29,none,C2/c
935,none,0.007020361,mp-32409,LiVPO5,none,P-1
936,fcc,0.007024739,mp-770316,Li4AlCr3O8,0.051,P2/m
937,none,0.007025112,mp-769628,Li4V3CrO8,none,P-1
938,fcc,0.007051992,mp-770091,Li4AlCr3O8,0.05,P-1
939,fcc,0.007064161,mp-762213,Li3Ni5O8,0,C2/m
940,fcc,0.00707678,mp-1177737,Li32Ti13Cr3O48,0.061,P1
941,fcc,0.007077488,mp-1040051,LiMg30GaO32,0,P4/mmm
942,fcc,0.007083589,mp-777983,Li32Ti13Cr3O48,0.061,P1
943,none,0.007090153,mp-1222771,Li3(WO3)8,none,C2/m
944,fcc,0.007093921,mp-764083,Li8MnNi7O16,0.053,P-1
945,fcc,0.007109378,mp-1172967,Li(NiO2)2,0.102,P-1
946,none,0.007149378,mp-540129,Li3Cr2(PO4)3,none,P2_1/c
947,none,0.007161021,mp-540098,Li2FeP2O7,none,C2/c
948,fcc,0.007172116,mp-774951,Li2MnCr3O8,0.073,C222_1
949,fcc,0.007215274,mp-1038204,LiMg30AlO32,0,P4/mmm
950,none,0.00723794,mp-643154,Li3V2(PO4)3,none,P2_1/c
951,fcc,0.007243257,mp-773293,Li2MnCrO4,0.063,C2/c
952,fcc,0.007270884,mp-765538,Li3Co2NiO6,0.061,C2/m
953,fcc,0.007282051,mp-770311,Li4AlCr3O8,0.05,P-1
954,none,0.007286053,mp-769860,Li2Co3NiO8,none,P6_3mc
955,fcc,0.007290938,mp-770051,Li4AlCr3O8,0.051,C2/m
956,none,0.007295208,mp-3660,LiB3O5,none,Pna2_1
957,none,0.007360226,mp-1188169,LiFe(GeO3)2,none,C2/c
958,none,0.007384633,mp-771377,Li4AlCr3O8,none,P-1
959,fcc,0.007430146,mp-770240,Li4AlCr3O8,0.05,P-1
960,fcc,0.007435686,mp-771783,Li3Co(NiO3)2,0.053,C2/m
961,fcc,0.007440524,mp-1038037,LiMg30MnO32,0,P4/mmm
962,fcc,0.007463914,mp-1175469,Li9Co7O16,0.059,P-1
963,none,0.0074651,mp-1176675,LiLuO2,none,P2_1/c
964,fcc,0.007487969,mp-768055,Li2VCrO4,0.043,P2/c
965,none,0.007493944,mp-10251,LiDyO2,none,P2_1/c
966,fcc,0.007519164,mp-769641,Li2VCrO4,0.043,C2/c
967,fcc,0.007529144,mp-1222544,Li4CoRuO6,0.057,C2
968,fcc,0.007537221,mp-25592,LiNiO2,0,R-3m
969,none,0.007545061,mp-776848,Na5LiV6O18,none,P1
970,none,0.007549101,mp-776908,RbLiMn3O4,none,P1
971,none,0.007553797,mp-1101526,LiCo2(PO3)5,none,Pc
972,none,0.00758886,mp-765022,LiVPO4,none,Pna2_1
973,none,0.007603055,mp-540137,LiMoPO5,none,P-1
974,fcc,0.00762714,mp-861570,Li2FeCo3O8,0.08,R-3m
975,none,0.007651084,mp-861468,LiFe(Si2O5)2,none,P2/c
976,fcc,0.007654143,mp-779327,Li32Mn11Cr5O48,0.066,P1
977,fcc,0.007660078,mp-769505,Li7Mn10Cr6O32,0.077,P1
978,fcc,0.007664039,mp-530165,Li13Ti22O48,0.071,Cm
979,none,0.007673127,mp-504181,LiMo8(P2O11)4,none,P-1
980,fcc,0.007690959,mp-1177345,Li4MnNi3O8,0,R-3m
981,fcc,0.007701166,mp-769984,Li4AlCr3O8,0,C2/m
982,hcp,0.007733105,mp-504948,LiScGeO4,0.108,Pnma
983,none,0.00774848,mp-6327,LiAlSiO4,none,P6_422
984,fcc,0.007765554,mp-769620,Li2VCrO4,0.044,P1
985,fcc,0.007765787,mp-1036220,LiMg14MnO16,0,Pmmm
986,fcc,0.007787477,mp-768057,Li2VCrO4,0.043,P-1
987,fcc,0.007795489,mp-770264,Li4Cr3CoO8,0.047,P-1
988,fcc,0.007821281,mp-770355,Li4Cr3CoO8,0.047,P-1
989,fcc,0.007832495,mp-770987,Li3Fe(NiO2)4,0.032,C2/m
990,fcc,0.007865309,mp-771203,Li4MnCr3O8,0,C2/m
991,fcc,0.007872266,mp-1177917,Li32Mn11Cr5O48,0.066,C2
992,fcc,0.007884519,mp-868138,Li4Co3NiO8,0.056,R-3m
993,none,0.007900021,mp-780215,LiVNiO4,none,Cmcm
994,none,0.007937284,mp-763264,Li2FeSiO4,none,P2_1
995,none,0.007961898,mp-744260,LiLa(MoO4)2,none,Pbca
996,fcc,0.007975476,mp-1177371,Li4V3CrO8,0,R-3m
997,fcc,0.008019619,mp-771785,Li3Co(NiO2)4,0.043,C2/m
998,fcc,0.008065597,mp-1175419,Li9Co7O16,0.056,P-1
999,none,0.008068451,mp-775234,Li3V3(FeO6)2,none,P2_1/c
1000,none,0.008081449,mp-759280,LiZr2(PO4)3,none,P-1
1001,none,0.008116918,mp-560209,Li9Al3P8O29,none,P-3c1
1002,hcp,0.008125395,mp-676694,LiNbO3,0.084,P1
1003,fcc,0.00813084,mp-763910,Li4MnFe3O8,0,C2/m
1004,fcc,0.008145258,mp-779106,Li32Mn11Cr5O48,0.066,C2
1005,fcc,0.008148992,mp-770341,Li4AlCr3O8,0.05,R-3m
1006,none,0.008197462,mp-763463,LiP4WO12,none,C2/c
1007,fcc,0.008206626,mp-764767,LiNiO2,0,C2/m
1008,fcc,0.00822427,mp-774098,LiVCrO4,0.077,Imma
1009,none,0.008229825,mp-779404,Li3Cr2(AsO4)3,none,Ia-3d
1010,fcc,0.008238491,mp-775164,Li2NbCr3O8,0,P4_332
1011,fcc,0.00825604,mp-779772,Li32Mn11Cr5O48,0.066,P1
1012,none,0.008293544,mp-773843,LiTi2(PO4)3,none,P2_12_12
1013,fcc,0.008298424,mp-1177783,Li32Mn11Cr5O48,0.066,P1
1014,fcc,0.008354409,mp-770340,Li4Cr3CoO8,0.049,P-1
1015,none,0.008361168,mp-774145,Li2V3SbO8,none,P6_3mc
1016,hcp,0.008390397,mp-1222376,LiZnBO3,0.139,Cc
1017,none,0.00840281,mp-774539,LiTi2(PO4)3,none,P1
1018,fcc,0.008418773,mp-769727,Li3(NiO2)4,0.064,C2/m
1019,fcc,0.008437218,mp-641353,LiMn2O4,0.077,Fddd
1020,none,0.008450282,mp-758475,Li4(CuO2)3,none,Cm
1021,fcc,0.008455843,mp-1177891,Li2MnV3O8,0.09,R3
1022,none,0.008476541,mp-31890,Li4Fe(PO4)2,none,P2_1/c
1023,fcc,0.008484359,mp-770234,Li4Cr3CoO8,0.047,P-1
1024,none,0.008507265,mp-565795,LiGa(MoO4)2,none,P-1
1025,none,0.008519464,mp-770997,Li2HfO3,none,C2/m
1026,fcc,0.008557456,mp-770255,Li4Cr3CoO8,0.047,P-1
1027,fcc,0.008562713,mp-771613,LiNiSnO4,0.068,Imma
1028,none,0.008583217,mp-31992,LiMn2P5O16,none,Pc
1029,fcc,0.008608752,mp-763578,Li4(NiO2)5,0.078,P-1
1030,none,0.008630817,mp-616572,Li2P2PdO7,none,Imma
1031,fcc,0.008639479,mp-1177394,Li4Mn3CrO8,0.059,C2/m
1032,fcc,0.008714724,mp-1175409,Li9Co7O16,0.055,P-1
1033,none,0.008723945,mp-770967,Li2MnP2O7,none,P2_1
1034,fcc,0.008753302,mp-771114,Li3Mn(NiO2)4,0,C2/m
1035,none,0.008787206,mp-754162,LiGdO2,none,P2_1/c
1036,none,0.008797606,mp-761679,Li8V3P8O29,none,Cc
1037,fcc,0.008810794,mp-774001,Li2Mn3CuO8,0.096,P1
1038,none,0.008818675,mp-770649,Li5NbO5,none,C2/m
1039,none,0.008844482,mp-19445,LiLa4NiO8,none,Cmmm
1040,none,0.008846436,mp-761752,LiVCoO4,none,Cmcm
1041,fcc,0.008860301,mp-769519,Li21(FeO4)4,0.087,C2
1042,none,0.008885771,mp-560247,Li2Ca2Si5O13,none,P-1
1043,none,0.00889137,mp-772333,Li2Ni3SbO8,none,P31c
1044,fcc,0.008923484,mp-531820,Li4Ti7O16,0.041,Pnnm
1045,none,0.008946903,mp-783909,Li2MnSiO4,none,P2_1/c
1046,none,0.008958705,mp-555065,LiEr(PO3)4,none,C2/c
1047,fcc,0.008967091,mp-771058,Li4Cr3CoO8,0.048,P-1
1048,none,0.009019762,mp-769946,Li4Mn(BO3)2,none,Pnnm
1049,none,0.009020809,mp-540147,LiV2(PO4)3,none,P2_1/c
1050,fcc,0.009043899,mp-769744,Li4Cr3CoO8,0.049,C2/m
1051,none,0.009069543,mp-764956,Li2CoSiO4,none,C222_1
1052,none,0.009072086,mp-759435,LiCu(PO3)3,none,P2_12_12_1
1053,hcp,0.00907348,mp-1211012,LiYGeO4,0.078,Pnma
1054,fcc,0.009103788,mp-768048,Li4VCr3O8,0.046,P-1
1055,hcp,0.009166468,mp-37436,Li7SbO6,0.078,P1
1056,none,0.009169141,mp-31557,LiCo6P7O24,none,P2_1/m
1057,hcp,0.009194497,mp-766561,LiNd14(Cu3O14)2,0,C2/m
1058,fcc,0.009255855,mp-775306,Li2Ti3FeO8,0.084,R32
1059,none,0.009257452,mp-7800,LiSmO2,none,P2_1/c
1060,none,0.009267103,mp-763391,Li2Co(SiO3)2,none,Fdd2
1061,none,0.009276197,mp-756935,Li3SbO3,none,I-43m
1062,fcc,0.009285022,mp-861746,Li4V3CrO8,0.041,P-1
1063,fcc,0.009290049,mp-775285,Li2CoNi3O8,0.078,P2_12_12_1
1064,none,0.009322008,mp-6240,LiIn(SiO3)2,none,C2/c
1065,fcc,0.009363575,mp-775342,LiVFeO4,0.072,Cmcm
1066,fcc,0.009365012,mp-779100,Li24Mn7Cr5O36,0.067,P1
1067,none,0.009396964,mp-1177831,Li2V2(PO4)3,none,P-1
1068,fcc,0.009405971,mp-772690,Li3Mn4CoO8,0,C2/m
1069,none,0.009406942,mp-1198234,Li3V(H4O3)4,none,Pc
1070,none,0.009411733,mp-1013850,LiV2P2O9,none,Pnma
1071,none,0.00942712,mp-540149,Li2Fe(PO3)4,none,Pnma
1072,none,0.009441896,mp-694615,LiFePO4,none,Cc
1073,none,0.00946162,mp-561310,NaLiCO3,none,P-62m
1074,none,0.009464502,mp-1228761,Ba4Li(IrO4)3,none,C2/m
1075,none,0.009482529,mp-25083,LiMo3P3O16,none,P-1
1076,none,0.009518123,mp-779525,Li3Sb3P8O29,none,Cc
1077,none,0.009535491,mp-560058,Li9Ga3P8O29,none,P-3c1
1078,fcc,0.009550811,mp-530141,Li7Ti16O32,0,I-42m
1079,fcc,0.009550892,mp-779455,Li7Ti5O12,0.038,C2/m
1080,none,0.009556497,mp-585400,LiFePO4,none,R3
1081,fcc,0.009562754,mp-769750,Li4Cr3CoO8,0,C2/m
1082,fcc,0.009587783,mp-504102,Li(NiO2)2,0.107,R-3
1083,fcc,0.009588714,mp-705742,Li13Mn21O48,0.083,Cm
1084,fcc,0.009628414,mp-25576,Li(MoO2)2,0.074,C2/c
1085,fcc,0.009628463,mp-1178111,Li10Co3Ni7O20,0.055,C2/m
1086,fcc,0.00963066,mp-776146,Li2V3FeO8,0.072,P2_1
1087,fcc,0.00963463,mp-761676,Li2Co3SbO8,0.052,R-3m
1088,fcc,0.009716233,mp-773299,LiMn3CrO8,0.08,R3m
1089,none,0.009743144,mp-10620,LiPrO2,none,P2_1/c
1090,fcc,0.009802567,mp-1177898,Li2MnFeO4,0,C2/c
1091,none,0.009805378,mp-1198622,Li7La3Hf2O12,none,I4_1/acd
1092,none,0.009815134,mp-567176,Li2Mo4O13,none,P-1
1093,none,0.009828214,mp-780918,Li2MnSiO4,none,Pna2_1
1094,none,0.009847888,mp-765849,LiFe(SiO3)2,none,C222
1095,fcc,0.009854474,mp-770089,Li24Mn7Cr5O36,0.066,P1
1096,fcc,0.009858095,mp-1037086,LiMg30CoO32,0,P4/mmm
1097,none,0.009863773,mp-555849,Li2Mo4O13,none,P-1
1098,fcc,0.009870673,mp-778764,Li24Mn7Cr5O36,0.066,P1
1099,hcp,0.009871852,mp-772151,Li2Ti4O9,0.071,P-3c1
1100,fcc,0.009875041,mp-14476,LiRhO2,0,Fd-3m
1101,none,0.009880959,mp-1200057,Li7La3(SnO6)2,none,I4_1/acd
1102,none,0.009889714,mp-579105,Li2Mo4O13,none,P2_1
1103,none,0.009897339,mp-764153,Li2CrP2O7,none,P2_1/c
1104,none,0.009904934,mp-604459,Li2B4H4O9,none,P-1
1105,fcc,0.009907533,mp-770312,Li24Mn7Cr5O36,0.067,P1
1106,none,0.009935677,mp-1222709,Li3(CuO2)2,none,Cm
1107,none,0.00993847,mp-861482,LiMnPO4,none,Pca2_1
1108,none,0.009938738,mp-762322,LiTi2(PO4)3,none,C2
1109,none,0.009941868,mp-775722,Na7Li3V10O30,none,P1
1110,fcc,0.009964776,mp-771107,Li3Ni4SnO8,0,C2/m
1111,none,0.009969538,mp-31969,Li3Mn2(PO4)3,none,P2_1/c
1112,none,0.009982248,mp-1020009,Li2Ca2Si2O7,none,P6_122
1113,fcc,0.009994137,mp-1175381,Li9Co7O16,0.056,P-1
1114,none,0.010002285,mp-772283,Li2Cr3SbO8,none,P6_3mc
1115,none,0.010006168,mp-861615,LiNiPO4,none,Pna2_1
1116,none,0.010006953,mp-557857,SrLi2Nb2O7,none,Cmcm
1117,fcc,0.010025228,mp-770232,Li24Mn7Cr5O36,0.067,P1
1118,none,0.010037451,mp-851285,Li2Fe2(PO4)3,none,Pbcn
1119,none,0.010046436,mp-1221217,Na3LiV4O12,none,C2
1120,none,0.010059419,mp-556014,Li3Ga(BO3)2,none,P-1
1121,hcp,0.010061465,mp-767604,Li12Nb14ZnO42,0.085,P1
1122,none,0.010087056,mp-1101535,Li2MnP2O7,none,P-1
1123,none,0.010141734,mp-773727,Li3Mn2(PO4)3,none,P2_1/c
1124,none,0.01017376,mp-770910,Li3Mn(BO3)2,none,P2_1/c
1125,none,0.010176464,mp-771281,Li5V4(PO4)6,none,Pc
1126,hcp,0.010179436,mp-674361,LiNbO3,0.088,P1
1127,hcp,0.010182247,mp-37839,Li7RuO6,0.079,P1
1128,none,0.010185918,mp-705340,LiVP2O7,none,P2_1/c
1129,fcc,0.010215567,mp-770281,Li24Mn7Cr5O36,0.067,P1
1130,fcc,0.010220194,mp-765728,Li4VFe3O8,0,R-3m
1131,hcp,0.010230684,mp-1197270,Li2CoSiO4,0.093,Pna2_1
1132,none,0.010251797,mp-849238,Li2MnSiO4,none,Pnma
1133,fcc,0.010272521,mp-1199885,Li12Mo5O17,0.05,P-1
1134,hcp,0.010297913,mp-759244,Li12Nb14ZnO42,0.084,P1
1135,fcc,0.010314287,mp-774016,Li2NbV3O8,0.035,R-3m
1136,fcc,0.010314865,mp-770366,Li24Mn7Cr5O36,0.066,P1
1137,none,0.010323727,mp-777414,Na7Li3V10O30,none,P1
1138,fcc,0.010328294,mp-770250,Li24Mn7Cr5O36,0.066,P1
1139,none,0.01037715,mp-766777,LiFePO4,none,Pca2_1
1140,hcp,0.010382187,mp-1078188,LiOsO3,0.08,R-3c
1141,fcc,0.010385611,mp-780441,Li24Mn7Cr5O36,0.066,P1
1142,fcc,0.010396818,mp-1040052,LiMg30GaO32,0,P4/mmm
1143,none,0.010408283,mp-31924,LiMnP2O7,none,C2/c
1144,none,0.010419372,mp-1176861,Li7V3P8O29,none,P1
1145,none,0.01042542,mp-861632,LiMnPO4,none,Pc
1146,hcp,0.010480723,mp-27417,Li3InO3,0.077,P-31c
1147,none,0.010480777,mp-767077,Li5Fe(SiO4)2,none,C2
1148,fcc,0.010499987,mp-776233,Li2Fe3SbO8,0.069,R-3m
1149,none,0.010505109,mp-775011,Li2NbFe3O8,none,P6_3mc
1150,none,0.01050983,mp-23906,LiH6NO6,none,Cmcm
1151,fcc,0.010518227,mp-690161,Li9Mn20O40,0.091,P1
1152,none,0.010537816,mp-1176963,Li7V3P8O29,none,C2
1153,fcc,0.010540894,mp-774010,Li2NbV3O8,0,P4_332
1154,none,0.010560155,mp-12525,Sr2LiReO6,none,Fm-3m
1155,none,0.01058524,mp-1178002,Li2Fe2(CO3)3,none,P1
1156,fcc,0.010590012,mp-774276,Li2Cr3SnO8,0.069,P4_32_12
1157,none,0.010602207,mp-18162,Li(CuO)2,none,Pnma
1158,fcc,0.010605227,mp-773235,Li3Fe3NiO8,0.057,R-3m
1159,none,0.010632565,mp-1177300,Li4VCr3O8,none,C2/m
1160,none,0.010649313,mp-504371,LiNi6P7O24,none,P2_1/m
1161,none,0.010676686,mp-540541,Li2W2O7,none,P-1
1162,fcc,0.010705524,mp-763807,Li11Ni13O24,0.044,C2/m
1163,fcc,0.010706725,mp-775737,LiNi9O10,0.013,P-1
1164,none,0.010763329,mp-766938,K3Li2Nb5O15,none,P4bm
1165,fcc,0.010775256,mp-775049,Li5Ti2V5O12,0.044,C2
1166,hcp,0.010802706,mp-1019724,LiEuO2,0.08,Pnma
1167,none,0.010807099,mp-32528,Li3V3(PO4)4,none,P2_1
1168,none,0.01082059,mp-769749,Li2Cr3SnO8,none,P6_3mc
1169,fcc,0.010833657,mp-36864,Li2TiO3,0.061,C2/c
1170,none,0.010839878,mp-853256,Li3Fe2(PO4)3,none,P-1
1171,none,0.010862036,mp-566164,NaLiV2O6,none,C2/c
1172,fcc,0.010874475,mp-1038227,LiMg30AlO32,0,P4/mmm
1173,fcc,0.010882101,mp-1178059,Li24Mn7Cr5O36,0.067,P1
1174,fcc,0.010902999,mp-774059,Li7Ti12Fe5O32,0.079,R3
1175,hcp,0.010905941,mp-767232,LiV2(PO4)2,0.134,P2_1
1176,hcp,0.010952973,mp-686057,LiNbO3,0.083,P1
1177,fcc,0.010957939,mp-762142,Li2Fe3CoO8,0.069,P4_32_12
1178,fcc,0.010981308,mp-19338,LiMoO2,0,R-3m
1179,hcp,0.011020281,mp-771623,Li5Mn3(PO4)4,0.123,Pm
1180,none,0.011068541,mp-767075,LiVSiO4,none,Cmcm
1181,none,0.011075125,mp-778718,Li2Cr2O7,none,C2/c
1182,fcc,0.011086003,mp-762007,Li7(NiO2)9,0.081,P-1
1183,fcc,0.011089792,mp-763906,Li2VCrO4,0,Imma
1184,none,0.01109437,mp-1101555,Li2MoP4O13,none,P-1
1185,none,0.011099816,mp-773068,LiZr2(PO4)3,none,Cc
1186,none,0.011137219,mp-771361,LiMn3(PO4)3,none,C2/c
1187,fcc,0.011159102,mp-1222630,Li3FeIrO5,0.013,P-1
1188,none,0.011192374,mp-18713,Ba2Li(CuO2)3,none,Fmmm
1189,none,0.01120411,mp-1176594,LiP4WO12,none,C2/c
1190,none,0.011221849,mp-762898,K8Li9(FeO4)4,none,P1
1191,fcc,0.011231771,mp-38676,Li11(NiO2)12,0.053,C2/m
1192,none,0.01123328,mp-540125,LiMnPO4,none,R3
1193,none,0.011233907,mp-698630,Li9Ni23O32,none,P1
1194,fcc,0.011239106,mp-1177528,Li3Ti7O14,0.072,C2/c
1195,none,0.011245254,mp-540123,LiFePO4,none,P2_1/c
1196,fcc,0.01127394,mp-861571,LiMnVO4,0,Imma
1197,fcc,0.01127811,mp-771724,Li3Fe2NiO6,0,C2/m
1198,none,0.011294426,mp-1013898,LiMo3P3O13,none,P2_1/m
1199,none,0.011342278,mp-1176778,LiCoPO4,none,Cc
1200,none,0.011372772,mp-756684,Sr2Li2Nb3O10,none,Fmm2
1201,none,0.011375406,mp-850110,Li2Mn(SiO3)2,none,Fdd2
1202,fcc,0.011426227,mp-705961,Li5Mn12O24,0.087,Cm
1203,none,0.011446398,mp-1105411,LiCr(GeO3)2,none,C2/c
1204,fcc,0.011461882,mp-850106,Li3(NiO2)4,0.056,C2/m
1205,fcc,0.0114771,mp-779768,Li32Ti11Cr5O48,0.063,P1
1206,fcc,0.01149728,mp-759713,Li8Ti15O32,0.072,R3m
1207,none,0.011515883,mp-1220829,Na5Li3V8O24,none,P1
1208,none,0.011519111,mp-768076,Li3V4(PO4)6,none,P1
1209,none,0.011520086,mp-1176826,Li8V3P8O29,none,P1
1210,hcp,0.011567403,mp-761968,Li4FeSi2O7,0.104,Cc
1211,fcc,0.0116189,mp-769743,Li4Cr3NiO8,0.042,P2/m
1212,none,0.011646225,mp-772055,Li6Ti2O7,none,C2/c
1213,fcc,0.011653803,mp-770106,Li4MnCrO6,0.069,P1
1214,none,0.011657545,mp-775624,Na5Li3V8O24,none,C2
1215,none,0.011692443,mp-767964,Li2Fe(SiO3)2,none,Fdd2
1216,none,0.011697632,mp-763459,LiP4WO12,none,P-1
1217,fcc,0.011702343,mp-769537,Li14MgCo13O28,0.06,P-1
1218,fcc,0.011723631,mp-771280,Li24Ti7Cr5O36,0.063,P1
1219,fcc,0.01173306,mp-770156,Li4MnCrO6,0.067,P1
1220,none,0.011759072,mp-1177054,Li7V3P8O29,none,P1
1221,none,0.011763192,mp-767711,Li2Mn2Si4O11,none,P-1
1222,none,0.01178352,mp-540110,LiFePO4,none,Pna2_1
1223,fcc,0.011788951,mp-768013,Li5Fe(Ni2O5)2,0,R-3m
1224,none,0.011804222,mp-775454,Li2MnSiO4,none,Pna2_1
1225,none,0.011839876,mp-697749,LiV2(PO4)3,none,Cc
1226,bcc,0.011867458,mp-762018,LiCoPO4,0.156,I-4
1227,fcc,0.011879703,mp-771784,Li3Mg(NiO2)4,0,R-3m
1228,fcc,0.011917415,mp-771286,Li24Ti7Cr5O36,0.063,P1
1229,fcc,0.011941059,mp-1178000,Li2TiCr3O8,0.07,C222_1
1230,fcc,0.01195803,mp-773709,Li3Fe(NiO3)2,0.042,C2/m
1231,none,0.011992522,mp-24560,LiB2H3O5,none,Pnna
1232,none,0.012009002,mp-26157,LiSb(PO3)4,none,P2_1/c
1233,none,0.012015531,mp-553966,Li(CuO)2,none,P4_2/nmc
1234,fcc,0.012024501,mp-770178,Li4MnCrO6,0.066,C2
1235,fcc,0.012044926,mp-770246,Li4MnCrO6,0.066,C2/c
1236,hcp,0.012079863,mp-778824,Li4Cr(WO4)3,0.098,P1
1237,fcc,0.012104342,mp-764207,Li4Fe3CoO8,0.043,C2/m
1238,none,0.012115339,mp-545467,Li3(CuO2)2,none,C2/m
1239,none,0.01211555,mp-760231,LiSn2(PO4)3,none,Pna2_1
1240,none,0.012116266,mp-756648,LiNdO2,none,P2_1/c
1241,hcp,0.012119885,mp-34375,Li7OsO6,0.079,P1
1242,fcc,0.012144276,mp-771462,Li3MnFe3O8,0.057,R-3m
1243,fcc,0.012154324,mp-530600,Li14Ti21O48,0.074,Cm
1244,none,0.012178889,mp-585269,Li5Mo2P5O18,none,P-1
1245,none,0.012181433,mp-776502,LiTi2(PO4)3,none,P1
1246,fcc,0.012185182,mp-771284,Li24Ti7Cr5O36,0.063,P1
1247,none,0.012200174,mp-1176890,Li7Fe8(BO3)8,none,P1
1248,hcp,0.012230666,mp-761311,Li4MnSi2O7,0.107,Cc
1249,none,0.012253222,mp-1211228,Li3Sm2(BO3)3,none,P2_1/c
1250,fcc,0.012260181,mp-770046,Li4Cr3NiO8,0.042,C2/m
1251,none,0.012260463,mp-773331,Li3MnO3,none,P4_2/mnm
1252,fcc,0.012264958,mp-771050,Li7MgNi7O16,0.073,P-1
1253,fcc,0.012282605,mp-763978,Li5Ti2V3O10,0.05,P-1
1254,fcc,0.012295122,mp-771228,Li4TiCrO6,0.065,P1
1255,fcc,0.012303139,mp-761738,Li2Co3NiO8,0.078,R-3m
1256,none,0.012310479,mp-775682,Na9Li7V16O48,none,C2
1257,none,0.012315615,mp-774579,LiTi2(PO4)3,none,P-1
1258,fcc,0.012330431,mp-1177760,Li32Ti11Cr5O48,0.061,C2
1259,none,0.012337342,mp-1016165,LiMn8O16,none,Pc
1260,none,0.012343037,mp-861609,Li2Mn4Si4O13,none,P-1
1261,fcc,0.01234737,mp-853206,Li3(CoO2)4,0.071,R-3m
1262,fcc,0.012369998,mp-775105,Li2MnFeO4,0.056,I-4m2
1263,none,0.012377052,mp-762566,Li2FeSiO4,none,C222_1
1264,fcc,0.012400512,mp-1177331,Li4MnCrO6,0.065,C2
1265,none,0.012403457,mp-555489,LiY6B3O14,none,P2_1/c
1266,fcc,0.012433858,mp-1175314,Li7Mn5O12,0.069,P-1
1267,none,0.012439302,mp-1013922,LiCr2P2O9,none,Pnma
1268,fcc,0.012439669,mp-762214,Li2Co3SnO8,0.091,P4_332
1269,fcc,0.012485301,mp-771285,Li24Ti7Cr5O36,0.064,P1