,anion_type,e_above_hull,mp_id,pretty_formula,rms,spacegroup.symbol
0,none,0,mp-841,Li2O2,none,P6_3/mmc
1,fcc,0,mp-18988,Li2MnO3,0.066,C2/m
2,none,0,mp-1199215,LiSm(PO3)4,none,C2/c
3,none,0,mp-1210954,LiSm2RuO6,none,P2_1/c
4,none,0,mp-1205078,LiCe(PO3)4,none,C2/c
5,hcp,0,mp-17854,LiInGeO4,0.093,Pnma
6,none,0,mp-1078209,LiLa2FeO6,none,R-3
7,none,0,mp-9059,KLi6TaO6,none,R-3m
8,fcc,0,mp-770533,Li6MnO4,0.057,P4_2/nmc
9,none,0,mp-652866,K11LiMn4O16,none,I-42m
10,none,0,mp-11992,LiLa2IrO6,none,P2_1/c
11,none,0,mp-559117,KLiMnO2,none,C2/m
12,none,0,mp-557467,Li4Ca(BO3)2,none,Pnnm
13,none,0,mp-1212005,KLiWO4,none,P2_1/c
14,none,0,mp-558102,KLiSi2O5,none,P2_1
15,none,0,mp-561474,K3LiSiO4,none,P2_1/c
16,none,0,mp-557268,KLi4AlO4,none,P2_1/c
17,none,0,mp-504806,K2Li14Pb3O14,none,Immm
18,none,0,mp-559106,KLi3PbO4,none,P-1
19,none,0,mp-562137,KLiCO3,none,P2_1/c
20,none,0,mp-6342,LiCa3RuO6,none,R-3c
21,none,0,mp-557473,K5LiGe2O7,none,P2_1/c
22,none,0,mp-18002,KLi3GeO4,none,P-1
23,none,0,mp-765535,KLiCoO2,none,C2/m
24,none,0,mp-1185315,Li3La3(MoO6)2,none,Ia-3d
25,none,0,mp-761715,K2Li3CoO4,none,P2_1/c
26,none,0,mp-19377,LiLa2MoO6,none,P2_1/c
27,none,0,mp-1194523,Li2CaTa2O7,none,Pnma
28,none,0,mp-1191787,LiCa3OsO6,none,R-3c
29,none,0,mp-7610,Li2CaSiO4,none,I-42m
30,none,0,mp-12448,LiSm2OsO6,none,P2_1/c
31,hcp,0,mp-1190195,LiIn(WO4)2,0.033,C2/c
32,hcp,0,mp-7688,Li2CdGeO4,0.094,Pmn2_1
33,fcc,0,mp-37620,LiMnO2,0.061,I4_1/amd
34,none,0,mp-552663,LiScAs2O7,none,C2
35,none,0,mp-6565,Li3Sc2(PO4)3,none,P2_1/c
36,none,0,mp-31800,LiFe2P3O10,none,P2_1/m
37,none,0,mp-31833,Li2Fe3(P2O7)2,none,P2_1/c
38,none,0,mp-1101512,LiFeP2O7,none,P2_1/c
39,none,0,mp-10517,LiScP2O7,none,P2_1
40,none,0,mp-18048,LiZnAsO4,none,R3
41,none,0,mp-551092,KLiZnO2,none,C2/m
42,none,0,mp-1223469,KLiZn3O4,none,Cm
43,fcc,0,mp-704943,Li2Mn3ZnO8,0.088,P2_13
44,none,0,mp-17288,Li2ZnSiO4,none,P2_1/c
45,hcp,0,mp-8184,Li2ZnGeO4,0.058,Pc
46,fcc,0,mp-772981,Li2Zn3(Ge3O8)2,0.095,P2_1
47,none,0,mp-1210963,Li2Zn2(MoO4)3,none,Pnma
48,none,0,mp-1199453,KLiMoO4,none,P6_3
49,none,0,mp-555965,Li2ZnSn3O8,none,Cmc2_1
50,fcc,0,mp-774155,Li2FeO3,0.067,C2
51,fcc,0,mp-19511,Li5FeO4,0.083,Pbca
52,none,0,mp-6412,Li2CuP2O7,none,C2/c
53,none,0,mp-18422,RbLiZn2O3,none,P4_2/mnm
54,hcp,0,mp-25044,LiMnAsO4,0.099,Pnma
55,none,0,mp-11904,LiSm2IrO6,none,P2_1/c
56,hcp,0,mp-9066,NaLi2AsO4,0.126,Pmn2_1
57,none,0,mp-14364,Cs2LiAsO4,none,Cmc2_1
58,none,0,mp-14363,Rb2LiAsO4,none,Cmc2_1
59,none,0,mp-1211004,LiSm(WO4)2,none,P-1
60,none,0,mp-18878,LiFeAs2O7,none,C2
61,none,0,mp-556256,Li3Fe2(AsO4)3,none,P2_1/c
62,hcp,0,mp-542932,LiFeAsO4,0.104,Pnma
63,hcp,0,mp-557293,Li2CdSiO4,0.146,Pnma
64,none,0,mp-12185,LiCu(PO3)3,none,P2_12_12_1
65,none,0,mp-759900,K2LiNbO4,none,P2_1/c
66,none,0,mp-7611,Li2CaGeO4,none,I-42m
67,none,0,mp-556902,KLi4NbO5,none,P-1
68,none,0,mp-1211233,LiDy6B3O14,none,P2_1/c
69,none,0,mp-15363,Li6Yb(BO3)3,none,P2_1/c
70,none,0,mp-1211079,LiTb6B3O14,none,P2_1/c
71,none,0,mp-578869,Na5LiMn2O8,none,Pnma
72,none,0,mp-18722,Cs2LiMnO4,none,Cmc2_1
73,fcc,0,mp-1222353,LiMnRhO4,0.069,Imma
74,none,0,mp-1177857,Li2Ti2Sb2O,none,I4/mmm
75,fcc,0,mp-691115,Li4Mn5O12,0.08,C2/c
76,none,0,mp-581285,LiGd6B3O14,none,P2_1/c
77,none,0,mp-559706,Li3Gd(BO3)2,none,P2_1/c
78,none,0,mp-5990,CsLi(B3O5)2,none,I-42d
79,fcc,0,mp-772258,LiMnNbO4,0.078,P4_322
80,none,0,mp-555082,CsLi5(BO3)2,none,C2/c
81,none,0,mp-1019607,Cs2Li5(BO2)7,none,Ama2
82,none,0,mp-1020664,Rb2Li5(BO2)7,none,Ama2
83,none,0,mp-560189,NaLi2BO3,none,P2_1/c
84,none,0,mp-553926,NaLiB4O7,none,Fdd2
85,none,0,mp-1210986,Li14Be6(BO3)9,none,P6_3/m
86,fcc,0,mp-771112,Li2Mn3NiO8,0.085,P4_332
87,fcc,0,mp-698582,Li5Mn7O16,0.076,Pnnm
88,hcp,0,mp-766795,LiCoBO3,0.167,Cc
89,none,0,mp-7020,LiYO2,none,P2_1/c
90,bcc,0,mp-8873,LiGeBO4,0.159,I-4
91,none,0,mp-556655,Li2AlBO4,none,P2_1/c
92,none,0,mp-557177,Li2Al(BO2)5,none,P2_1/c
93,none,0,mp-18902,Li2WO4,none,R-3
94,hcp,0,mp-7638,LiTa3O8,0.012,C2/c
95,fcc,0,mp-775538,Li3Mn5FeO12,0.083,C2/c
96,fcc,0,mp-769530,Li3Mn4(FeO6)2,0.083,P-1
97,none,0,mp-556531,LiSi2BO6,none,P2_1
98,none,0,mp-558455,Na4Li5(BO3)3,none,C2/c
99,hcp,0,mp-1211126,LiSc(WO4)2,0.03,C2/c
100,fcc,0,mp-761940,Li2MnCo3O8,0.076,C2
101,hcp,0,mp-1210796,Li2MnGeO4,0.067,Pmn2_1
102,none,0,mp-774432,K2Li3NiO4,none,P2_1/c
103,none,0,mp-14466,KLi6IrO6,none,R-3m
104,hcp,0,mp-560605,LiLa4AuO8,0,Cmmm
105,none,0,mp-561288,K3LiIrO4,none,C2/c
106,none,0,mp-1210919,LiLa(WO4)2,none,P-1
107,none,0,mp-24988,K2Li3FeO4,none,P2_1/c
108,none,0,mp-560297,LiTaSiO5,none,P2_1/c
109,none,0,mp-12451,LiLa2OsO6,none,P2_1/c
110,none,0,mp-560104,LiTaGeO5,none,P2_1/c
111,none,0,mp-769464,LiLa3MnO7,none,P2_1/c
112,none,0,mp-560866,LiLa(PO3)4,none,C2/c
113,none,0,mp-16792,Ba4LiTa3O12,none,P6_3mc
114,none,0,mp-1191085,LiY(WO4)2,none,P2/c
115,none,0,mp-558941,LiYSiO4,none,P2_1/c
116,fcc,0,mp-774752,Li2MgTi3O8,0.076,P2_13
117,none,0,mp-6644,LiLa2RuO6,none,P2_1/c
118,hcp,0,mp-763876,Li2MnSiO4,0.131,Pnma
119,fcc,0,mp-775161,Li2Ti3VO8,0.066,P4_332
120,fcc,0,mp-772392,LiTiVO4,0.074,Imma
121,none,0,mp-1211786,Li6Eu(BO3)3,none,P2_1/c
122,none,0,mp-1213345,LiEu6B3O14,none,P2_1/c
123,none,0,mp-1210908,Li2Lu5B3O13,none,P2_1/m
124,none,0,mp-1211340,Li6Tm(BO3)3,none,P2_1/c
125,none,0,mp-12160,Li6Ho(BO3)3,none,P2_1/c
126,none,0,mp-17672,BaLi(B3O5)3,none,R3c
127,none,0,mp-6075,Ba2Li(BO2)5,none,P2_1/m
128,none,0,mp-6499,BaLiBO3,none,P2_1/c
129,none,0,mp-16691,SrLi2Ti6O14,none,Cmce
130,none,0,mp-6787,RbLiB4O7,none,P2_12_12_1
131,none,0,mp-1020620,Rb5Li6(BO2)11,none,C2
132,hcp,0,mp-783910,LiFeBO3,0.181,P2_1/c
133,none,0,mp-774096,Li2FeO2,none,Immm
134,fcc,0,mp-851027,LiFeO2,0,Fd-3m
135,hcp,0,mp-19017,LiFePO4,0.127,Pnma
136,none,0,mp-763532,LiP3(WO6)2,none,P-1
137,fcc,0,mp-771536,Li7Co5O12,0.061,C2/m
138,none,0,mp-555743,LiZnPO4,none,Cc
139,fcc,0,mp-771093,Li3Cr10Fe5O24,0.056,Cm
140,none,0,mp-22694,LiPPbO4,none,Pna2_1
141,fcc,0,mp-765070,Li5CoO4,0.082,Pbca
142,none,0,mp-31531,Li8CoO6,none,P6_3cm
143,fcc,0,mp-24850,LiCoO2,0.058,R-3m
144,none,0,mp-780190,Li2Cr3(NiO6)2,none,Pbcn
145,none,0,mp-18741,RbLiCrO4,none,P31c
146,none,0,mp-863863,LiCoPO4,none,Cc
147,fcc,0,mp-1174037,Li5Co3O8,0.052,P-1
148,none,0,mp-762276,Li2NbCr3O8,none,P6_3mc
149,fcc,0,mp-772723,LiCrSnO4,0.059,Imma
150,fcc,0,mp-774082,Li(CoO2)2,0.077,P2_1
151,fcc,0,mp-5061,Li5ReO6,0.066,C2/m
152,none,0,mp-540946,LiReO4,none,P-1
153,none,0,mp-7471,Li3AuO3,none,P4_2/mnm
154,hcp,0,mp-996959,LiAuO2,0,I4_122
155,none,0,mp-585194,LiCo(PO3)3,none,P-1
156,none,0,mp-1222442,Li5AuO4,none,C2/m
157,hcp,0,mp-21332,LiGdO2,0.085,Pnma
158,fcc,0,mp-699343,Li4MoO5,0.065,I4
159,none,0,mp-31535,LiCoP2O7,none,P2_1
160,none,0,mp-540495,LiCo(PO3)4,none,Pbcn
161,fcc,0,mp-35975,Li2MoO3,0,C2/m
162,none,0,mp-772468,Li2Cr3(CoO6)2,none,Pbcn
163,none,0,mp-19117,Li4MoO5,none,P-1
164,none,0,mp-25742,LiCr(GeO3)2,none,P2_1/c
165,none,0,mp-1201314,Li8Be6P7O29,none,P31c
166,none,0,mp-615884,CsLiCrO4,none,P2_1/c
167,none,0,mp-1020164,Na3LiP2O7,none,C222_1
168,fcc,0,mp-18925,Li6CoO4,0.065,P4_2/nmc
169,hcp,0,mp-15349,Li2GeO3,0.068,Cmc2_1
170,hcp,0,mp-19260,Li2WO4,0.106,C2/c
171,none,0,mp-504167,LiMn6P7O24,none,P2_1/m
172,hcp,0,mp-5012,Li2SiO3,0.107,Cmc2_1
173,none,0,mp-11737,Li4SiO4,none,P-1
174,none,0,mp-28549,Li8SiO6,none,P6_3cm
175,none,0,mp-567303,Li2MnP2O7,none,P2_1/c
176,none,0,mp-4117,Li2Si2O5,none,Ccc2
177,fcc,0,mp-1211132,Li5OsO6,0.061,C2/m
178,hcp,0,mp-1078358,LiOsO3,0.076,R3c
179,fcc,0,mp-760483,Li2PdO3,0,C2/m
180,none,0,mp-7608,Li2PdO2,none,Immm
181,fcc,0,mp-530399,LiAl5O8,0,P4_332
182,fcc,0,mp-15960,Li5AlO4,0.1,Pbca
183,hcp,0,mp-3427,LiAlO2,0.148,P4_12_12
184,none,0,mp-6425,Li3In2(PO4)3,none,R-3
185,none,0,mp-540484,LiMnP2O7,none,P2_1
186,none,0,mp-559142,KLi(PO3)2,none,C2/c
187,none,0,mp-772290,LiAgO,none,I4/mmm
188,none,0,mp-27227,LiAg3O2,none,Ibam
189,hcp,0,mp-18997,LiMnPO4,0.126,Pnma
190,none,0,mp-996962,LiAgO2,none,P2_1/c
191,none,0,mp-22170,Li4PbO4,none,Cmcm
192,fcc,0,mp-22450,Li2PbO3,0,C2/c
193,none,0,mp-32007,LiMn(PO3)4,none,Pbcn
194,none,0,mp-3054,Li2CO3,none,C2/c
195,none,0,mp-8491,LiInP2O7,none,P2_1
196,none,0,mp-4558,Li4GeO4,none,Cmcm
197,fcc,0,mp-28623,Li4Ge5O12,0.1,P-1
198,none,0,mp-763407,LiP4WO12,none,Pbcn
199,none,0,mp-5832,Li2Ge7O15,none,Pbcn
200,none,0,mp-1019794,K3LiP2O7,none,C222_1
201,hcp,0,mp-3666,LiTaO3,0.093,R3c
202,none,0,mp-559452,Na5Li(PO4)2,none,Pnma
203,none,0,mp-560667,CsLi(PO3)2,none,Fdd2
204,fcc,0,mp-774941,Li(NiO2)2,0.1,P4_332
205,none,0,mp-566105,KLiCrO4,none,Pna2_1
206,none,0,mp-1222580,Li5Cr3(PO4)4,none,P1
207,hcp,0,mp-25614,LiNiPO4,0.117,Pnma
208,fcc,0,mp-566008,Li2NiO3,0.071,C2/m
209,none,0,mp-32373,Li2Ni3(P2O7)2,none,P2_1/c
210,none,0,mp-19667,LiNi2P3O10,none,P2_1/m
211,none,0,mp-1176610,LiNi(PO3)3,none,P2_12_12_1
212,none,0,mp-1101520,LiCrP2O7,none,P2_1/c
213,none,0,mp-555486,LiEu(PO3)4,none,C2/c
214,none,0,mp-19103,LiCrP2O7,none,P2_1
215,none,0,mp-540481,Li2CrP2O7,none,C2/c
216,none,0,mp-762826,Li3Fe2(PO4)3,none,P2_12_12
217,fcc,0,mp-754605,LiLuO2,0.091,I4_1/amd
218,none,0,mp-555958,Ba2Li3(PO3)7,none,P2_1/c
219,fcc,0,mp-532085,Li2IrO3,0,C2
220,none,0,mp-504360,Li9Cr3P8O29,none,P-3c1
221,none,0,mp-19294,LiFeP2O7,none,P2_1
222,none,0,mp-851278,Li3Cr2(PO4)3,none,P1
223,none,0,mp-1211562,LiEu2RuO6,none,P2_1/c
224,none,0,mp-542122,Ba3LiRu2O9,none,P6_3/mmc
225,none,0,mp-1210924,LiTb2RuO6,none,P2_1/c
226,none,0,mp-1211106,LiPr2RuO6,none,P2_1/c
227,none,0,mp-17208,K2Li14Zr3O14,none,Immm
228,none,0,mp-31788,Li3Fe2(PO4)3,none,P2_1/c
229,none,0,mp-579738,Li9Fe3P8O29,none,P-3c1
230,none,0,mp-1202818,LiZr2(AsO4)3,none,P2_1/c
231,none,0,mp-10499,LiZr2(PO4)3,none,P2_1/c
232,none,0,mp-1194740,LiSc(GeO3)2,none,P2_1/c
233,hcp,0,mp-6224,LiScSiO4,0.117,Pnma
234,none,0,mp-1098000,LiEu3O4,none,Pnma
235,none,0,mp-558045,NaLi2PO4,none,Pnma
236,fcc,0,mp-777732,Li8Mn13Cr3O32,0.082,C2/m
237,hcp,0,mp-1211055,LiPt3O4,0,Pm-3n
238,none,0,mp-6248,LiGd(PO3)4,none,C2/c
239,none,0,mp-705007,LiMo(PO3)4,none,P2_1/c
240,none,0,mp-705113,LiMo4P7O24,none,P-1
241,none,0,mp-25080,Li2MoO4,none,R-3
242,none,0,mp-770839,LiCr(CO3)2,none,R-3
243,hcp,0,mp-7137,LiTbO2,0.085,Pnma
244,none,0,mp-540083,LiMo(PO4)2,none,P2_1/c
245,none,0,mp-540140,Li3Mo2(PO4)3,none,P2_1/c
246,fcc,0,mp-754870,Li2RhO3,0,C2/m
247,fcc,0,mp-14115,LiRhO2,0,R-3m
248,none,0,mp-582900,Li3Mo3P3O17,none,P-1
249,hcp,0,mp-4527,Li8SnO6,0.052,R-3
250,none,0,mp-585265,LiMo2(PO4)3,none,C2
251,fcc,0,mp-3540,Li2SnO3,0.044,C2/c
252,fcc,0,mp-1210877,Li2TcO3,0,C2/c
253,fcc,0,mp-31488,Li3NbO4,0,I-43m
254,none,0,mp-28030,Li8Nb2O9,none,P-1
255,hcp,0,mp-3731,LiNbO3,0.083,R3c
256,none,0,mp-1101506,LiMoP2O7,none,P2_1/c
257,none,0,mp-3924,LiNbO2,none,P6_3/mmc
258,none,0,mp-18194,LiTb(PO3)4,none,C2/c
259,none,0,mp-775271,Li2Cr3WO8,none,P6_3mc
260,fcc,0,mp-1176640,LiMnCrO4,0.077,Imma
261,hcp,0,mp-976726,LiDyO2,0.09,Pnma
262,none,0,mp-12645,LiHoO2,none,P2_1/c
263,none,0,mp-26949,LiSn2(PO3)5,none,Pc
264,fcc,0,mp-754237,LiTmO2,0.092,I4_1/amd
265,hcp,0,mp-8610,Li8PtO6,0.053,R-3
266,fcc,0,mp-531826,Li2PtO3,0,C2
267,none,0,mp-554917,LiSn2(PO4)3,none,P-1
268,none,0,mp-18987,LiMoP2O7,none,P2_1
269,none,0,mp-755013,Li5TaO5,none,C2/m
270,none,0,mp-557104,LiAlB2O5,none,C2/c
271,none,0,mp-1211486,LiPr6B3O14,none,P2_1/c
272,none,0,mp-8313,Cs2Li2GeO4,none,P-1
273,fcc,0,mp-1222349,LiGeRhO4,0.078,Imma
274,none,0,mp-6456,LiNbGeO5,none,Pnma
275,none,0,mp-19440,LiVO3,none,C2/c
276,none,0,mp-8450,Rb2Li2GeO4,none,P-1
277,fcc,0,mp-32316,Li2NiGe3O8,0.088,P4_332
278,none,0,mp-645305,LiFe(GeO3)2,none,P2_1/c
279,hcp,0,mp-1210923,Li2FeGeO4,0.06,Pmn2_1
280,none,0,mp-6721,Sr3LiRuO6,none,R-3c
281,none,0,mp-763254,Na2Li2CoO4,none,P2_1/c
282,none,0,mp-540990,Na2Li3CoO4,none,Pnnm
283,none,0,mp-777667,LiV2O5,none,Pnma
284,none,0,mp-18495,SrLi(B3O5)3,none,R3c
285,fcc,0,mp-777452,LiNbCoO4,0.062,P4_322
286,none,0,mp-10814,SrLiBO3,none,P2_1/c
287,none,0,mp-1190151,Sr3LiSbO6,none,R-3c
288,none,0,mp-1209478,Rb2Li3GaO4,none,Ibam
289,none,0,mp-555140,Cs2Li3GaO4,none,Ibam
290,none,0,mp-540945,Na2Li3GaO4,none,Pnnm
291,hcp,0,mp-17685,Li3GaGeO5,0.058,Pna2_1
292,fcc,0,mp-868358,Li4CoNi3O8,0,C2/m
293,none,0,mp-8702,LiGaGeO4,none,R-3
294,none,0,mp-18147,LiGaSiO4,none,R3
295,fcc,0,mp-776511,LiCoNiO4,0.077,Imma
296,hcp,0,mp-16996,Li3GaSiO5,0.084,Pna2_1
297,none,0,mp-17774,K2Li3GaO4,none,P2_1/c
298,none,0,mp-1211020,LiGa(PO3)4,none,Pbcn
299,none,0,mp-11905,LiNd2IrO6,none,P2_1/c
300,none,0,mp-1211137,LiNd(WO4)2,none,P-1
301,none,0,mp-6663,NaLiGe4O9,none,Pca2_1
302,none,0,mp-561254,NaLi3GeO4,none,I4_1/a
303,hcp,0,mp-769776,Li2CoGeO4,0.058,Pc
304,none,0,mp-558054,SrLi2Ta2O7,none,Cmcm
305,fcc,0,mp-585492,Li2MgMn3O8,0.09,P4_332
306,fcc,0,mp-770932,LiSbO3,0.083,C2/m
307,hcp,0,mp-9625,LiMgPO4,0.123,Pnma
308,none,0,mp-1020109,LiMg3P3O11,none,Pnma
309,none,0,mp-8180,LiNO3,none,R-3c
310,hcp,0,mp-5854,LiGaO2,0.005,Pna2_1
311,none,0,mp-6071,Sr3LiIrO6,none,R-3c
312,fcc,0,mp-28146,LiGa5O8,0,P4_332
313,fcc,0,mp-4657,Li5GaO4,0.084,Pbca
314,none,0,mp-1208770,Sr3Li6Nb2O11,none,Pmma
315,none,0,mp-1190404,Sr3LiNbO6,none,R-3c
316,none,0,mp-1080625,Sr2LiReO6,none,I4/m
317,none,0,mp-27281,LiH3O2,none,C2/m
318,fcc,0,mp-775326,Li2Ti3NiO8,0.067,P4_332
319,fcc,0,mp-765279,Li10CoNi9O20,0.071,P1
320,fcc,0,mp-23856,LiHO,0.086,P4/nmm
321,hcp,0,mp-6765,Li3AlGeO5,0.076,Pna2_1
322,none,0,mp-1222525,LiAlGeO4,none,R3
323,none,0,mp-504810,Rb2Li14Pb3O14,none,Immm
324,none,0,mp-1191141,SrLi2SiO4,none,P3_121
325,none,0,mp-559533,NaLiCO3,none,P-6
326,none,0,mp-767311,Li2Ni(CO3)2,none,P1
327,none,0,mp-768029,LiFe(CO3)2,none,R-3
328,none,0,mp-765320,Li2Fe(CO3)2,none,P2_1/c
329,none,0,mp-1190486,Sr3LiTaO6,none,R-3c
330,hcp,0,mp-19219,Li3VO4,0.067,Pmn2_1
331,hcp,0,mp-583094,Li3VO4,0.132,Pnma
332,none,0,mp-1208758,Sr3Li6Ta2O11,none,Pmma
333,fcc,0,mp-19340,LiVO2,0,R-3m
334,fcc,0,mp-769597,Li2CoGe3O8,0.088,P2_13
335,fcc,0,mp-27483,Li5TlO4,0.096,P4_2/nmc
336,none,0,mp-566555,Li3Nd3(WO6)2,none,Ia-3d
337,none,0,mp-12450,LiNd2OsO6,none,P2_1/c
338,none,0,mp-18711,LiNd(PO3)4,none,C2/c
339,none,0,mp-762019,LiV(CO3)2,none,R-3
340,none,0,mp-18860,Li2VSiO5,none,P4/nmm
341,none,0,mp-1101587,Li7V8(PO4)12,none,P1
342,none,0,mp-773163,Li2Fe3SnO8,none,P6_3mc
343,none,0,mp-1101601,LiV2(PO4)3,none,P2/c
344,none,0,mp-18274,Ba4LiNb3O12,none,P6_3mc
345,none,0,mp-640515,LiV(SiO3)2,none,P2_1/c
346,hcp,0,mp-1210933,LiV(WO4)2,0.024,C2/c
347,fcc,0,mp-771803,LiNbFeO4,0.073,P4_322
348,none,0,mp-775204,Li2V3WO8,none,P6_3mc
349,none,0,mp-554837,Ba3LiIr2O9,none,P6_3/mmc
350,none,0,mp-19107,LiMnVO4,none,Cmcm
351,none,0,mp-566084,K2LiVO4,none,C2/m
352,fcc,0,mp-766823,Li7Ti11O24,0.072,C2/m
353,none,0,mp-566658,LiV(GeO3)2,none,P2_1/c
354,none,0,mp-1222477,LiVZnO4,none,R3
355,none,0,mp-540015,LiV2P5O16,none,Pc
356,none,0,mp-504366,Li9V3P8O29,none,P-3c1
357,none,0,mp-32492,LiV(PO3)4,none,Pbcn
358,fcc,0,mp-5670,LiTi2O4,0,Fd-3m
359,fcc,0,mp-685194,Li4Ti5O12,0.078,C2/c
360,none,0,mp-32427,LiVPO5,none,Pnma
361,fcc,0,mp-2931,Li2TiO3,0.062,C2/c
362,none,0,mp-32419,LiV2(PO4)3,none,R-3c
363,none,0,mp-32405,LiVP2O7,none,C2
364,none,0,mp-19615,Li3V2(PO4)3,none,P2_1/c
365,none,0,mp-18911,LiVP2O7,none,P2_1
366,none,0,mp-11903,LiEu2IrO6,none,P2_1/c
367,none,0,mp-9172,Li4TiO4,none,Cmcm
368,fcc,0,mp-1960,Li2O,0,Fm-3m
369,none,0,mp-849522,Li8V3P8O29,none,Cc
370,none,0,mp-558083,BaLi2Ti6O14,none,Cmce
371,fcc,0,mp-776615,Li4VCr3O8,0.042,P2/m
372,none,0,mp-770127,Li4Ni3Sn5O16,none,P1
373,none,0,mp-1211080,LiNd2RuO6,none,P2_1/c
374,none,0,mp-1211241,LiNd6B3O14,none,P2_1/c
375,none,0,mp-1198049,Li6Nd(BO3)3,none,P2_1/c
376,fcc,0,mp-769637,Li5Ti6FeO16,0.067,P2_1
377,none,0,mp-1211215,Li2Nd(NO3)5,none,Pnnm
378,fcc,0,mp-1177863,Li2Ti3FeO8,0.083,P2_13
379,none,0,mp-1195757,Li2Sn(H5O4)2,none,P2_1/c
380,none,0,mp-697181,CsLi2(HO)3,none,P2_1/m
381,none,0,mp-1203059,LiAs3H2O9,none,P2_1/c
382,none,0,mp-1192746,LiAs2H3O7,none,C2/m
383,none,0,mp-24610,LiP(HO2)2,none,Pna2_1
384,none,0,mp-565332,LiMg4V3O12,none,I-42d
385,none,0,mp-569876,LiMgVO4,none,Cmcm
386,fcc,0,mp-772006,Li2V3SbO8,0.069,R-3m
387,none,0,mp-776143,Li4V3CrO8,none,C2/m
388,none,0,mp-1199091,Li3B5(HO5)2,none,P4_32_12
389,none,0,mp-740714,LiB5H2O9,none,P2_1/c
390,fcc,0,mp-771631,LiVNiO4,0,Imma
391,none,0,mp-19123,Rb2LiVO4,none,Cmc2_1
392,fcc,0,mp-38280,LiTiO2,0,I4_1/amd
393,none,0,mp-6270,Ba2LiReO6,none,Fm-3m
394,none,0,mp-1195001,Na5Li(Mo3O10)3,none,Fdd2
395,none,0,mp-560846,Na2Li3FeO4,none,Pnnm
396,none,0,mp-561689,CsLiMoO4,none,F-43m
397,none,0,mp-566323,RbLiMoO4,none,Cc
398,fcc,0,mp-850968,LiVSnO4,0.069,Imma
399,none,0,mp-31773,Li2Fe2(MoO4)3,none,Pbcn
400,none,0,mp-776870,Li2V3SnO8,none,Cc
401,none,0,mp-541190,Cs2LiVO4,none,Cmc2_1
402,none,0,mp-1221048,NaLiV2O6,none,C2/c
403,none,0,mp-698205,LiB(HO2)2,none,P2_1/c
404,none,0,mp-11189,Li2MgSiO4,none,P2_1/c
405,fcc,0,mp-5769,Li3SbO4,0,P2/c
406,hcp,0,mp-29892,LiSb3O8,0.106,P2_1/c
407,none,0,mp-19104,LiYb(WO4)2,none,P2/c
408,hcp,0,mp-1180482,LiYb(WO4)2,0.099,P2/c
409,none,0,mp-1192153,LiDy(WO4)2,none,P2/c
410,none,0,mp-566745,Ba5Li2(WO5)3,none,P6_3mc
411,none,0,mp-1191729,LiHo(WO4)2,none,P2/c
412,none,0,mp-1210997,LiTm(WO4)2,none,P2/c
413,none,0,mp-566900,Li2Ni(WO4)2,none,P-1
414,none,0,mp-557012,Li3Sc(BO3)2,none,P2_1/c
415,hcp,0,mp-1190882,LiLu(WO4)2,0.04,P2/c
416,none,0,mp-1212166,LiEu(WO4)2,none,P2/c
417,hcp,0,mp-19682,LiFe(WO4)2,0.021,C2/c
418,fcc,0,mp-772487,LiCrO2,0,Fd-3m
419,hcp,0,mp-770632,Li3CrO4,0.071,Pmn2_1
420,none,0,mp-1211144,LiSm6B3O14,none,P2_1/c
421,none,0,mp-1210849,Li2Fe(WO4)2,none,P-1
422,none,0,mp-1211541,Li6Sm(BO3)3,none,P2_1/c
423,none,0,mp-11906,LiPr2IrO6,none,P2_1/c
424,none,0,mp-1192111,LiEr(WO4)2,none,P2/c
425,none,0,mp-18220,LiAlSiO4,none,R3
426,none,0,mp-6442,LiAl(Si2O5)2,none,P2/c
427,hcp,0,mp-1020023,Li3AlSiO5,0.093,Pna2_1
428,none,0,mp-1211468,Li6Er(BO3)3,none,P2_1/c
429,none,0,mp-772280,Li2Fe3SbO8,none,P6_3mc
430,none,0,mp-6668,LiTiPO5,none,Pnma
431,fcc,0,mp-769961,Li4Ni3SbO8,0,R-3m
432,none,0,mp-18640,LiTi2(PO4)3,none,R-3c
433,fcc,0,mp-771861,LiNiSbO4,0.069,Imma
434,fcc,0,mp-774797,Li2Ti3ZnO8,0.063,P2_13
435,fcc,0,mp-759849,Li2Ti6Zn3O16,0.085,P2_1
436,none,0,mp-24920,Li2CrO4,none,R-3
437,none,0,mp-1211005,LiTb(WO4)2,none,P2/c
438,none,0,mp-1210920,LiGd(WO4)2,none,P2/c
439,none,0,mp-1178391,CsLiWO4,none,I-4
440,fcc,0,mp-3151,Li3TaO4,0.058,C2/c
441,none,0,mp-13772,Li3Pr2(BO3)3,none,P2_1/c
442,fcc,0,mp-765828,LiMnFeO4,0.068,Imma
443,none,0,mp-769567,Li10Ti11Cr9O40,none,P-1
444,fcc,0,mp-5488,LiInO2,0.058,I4_1/amd
445,none,0,mp-19131,LiMnBO3,none,P-6
446,fcc,0,mp-771738,LiTiCrO4,0.071,Imma
447,none,0,mp-850971,LiMnBO3,none,Cc
448,none,0,mp-12449,LiPr2OsO6,none,P2_1/c
449,hcp,0,mp-9197,Li3AsO4,0.072,Pmn2_1
450,hcp,0,mp-9657,LiAsO3,0.099,R-3
451,fcc,0,mp-3297,Li10Zn4O9,0.081,P4_2/nmc
452,fcc,0,mp-14495,Li6ZnO4,0.062,P4_2/nmc
453,none,0,mp-14704,Li6Y(BO3)3,none,P2_1/c
454,hcp,0,mp-763301,Li2CoSiO4,0.091,Pc
455,none,0,mp-557632,K2LiBO3,none,C2
456,none,0,mp-772185,Li6Hf2O7,none,C2/c
457,none,0,mp-558628,KLi2BO3,none,Pnma
458,fcc,0,mp-755352,Li2HfO3,0.055,C2/c
459,none,0,mp-6648,KLiB4O7,none,P2_12_12_1
460,hcp,0,mp-13725,Li3PO4,0.116,Pmn2_1
461,none,0,mp-554577,Li4P2O7,none,P2_1/c
462,none,0,mp-6126,LiCdBO3,none,P-6
463,none,0,mp-29195,LiPO3,none,P2_1/c
464,none,0,mp-10584,Ba2LiOsO6,none,Fm-3m
465,none,0,mp-1020015,Li2B3PO8,none,P-1
466,none,0,mp-18932,LiPr(WO4)2,none,P-1
467,none,0,mp-556321,Li2Co(WO4)2,none,P-1
468,none,0,mp-566232,Na3LiWO5,none,P-1
469,fcc,0,mp-18793,LiCrO2,0,R-3m
470,none,0,mp-542207,Ba3LiOs2O9,none,P6_3/mmc
471,none,0,mp-7971,Ba4Li(SbO4)3,none,Im-3m
472,none,0,mp-775082,Li3Fe4SbO8,none,C2/m
473,fcc,0,mp-37692,Li3RuO4,0,P2/c
474,none,0,mp-1212254,Li3Yb(NO3)6,none,P2_1/c
475,none,0,mp-1212130,Li3Tb(NO3)6,none,P2_1/c
476,fcc,0,mp-4630,Li2RuO3,0,C2/m
477,none,0,mp-1212476,Li3Gd(NO3)6,none,P2_1/c
478,hcp,0,mp-764790,Li2FeSiO4,0.128,Pnma
479,none,0,mp-9158,LiCuO2,none,C2/m
480,none,0,mp-6015,LiSiNO,none,Pca2_1
481,none,0,mp-555979,Li2Pr(NO3)5,none,Pnnm
482,none,0,mp-6332,Li2TiSiO5,none,P4/nmm
483,none,0,mp-1212171,Li3Y(NO3)6,none,P2_1/c
484,none,0,mp-754534,Li2CeO3,none,Cmmm
485,none,0,mp-558619,Li2Ti6PbO14,none,Cmce
486,none,0,mp-13182,Li2TiGeO5,none,P4/nmm
487,none,0,mp-14871,Li16Ta2N8O,none,R-3
488,none,0,mp-14629,Li2EuSiO4,none,P3_121