,anion_type,e_above_hull,mp_id,pretty_formula,rms,spacegroup.symbol
2029,none,0.022629664,mp-1176783,LiCo2(PO4)2,none,Pca2_1
2030,none,0.022639432,mp-24150,LiNd2HO3,none,Immm
2031,none,0.022649063,mp-1201372,LiSmEu2O4,none,Pnma
2032,hcp,0.022666785,mp-27453,Li7SbO6,0.096,R3
2033,none,0.022700064,mp-774270,Li6V3P8O29,none,P1
2034,none,0.022753985,mp-763866,Li6V3P8O29,none,P1
2035,fcc,0.022772354,mp-850772,Li8CoNi9O20,0.065,Pm
2036,none,0.022783441,mp-1100522,Li9Mn7O16,none,P-1
2037,none,0.02280423,mp-1176865,Li7V3P8O29,none,P1
2038,none,0.02280848,mp-31940,LiMnPO4,none,P31c
2039,none,0.022808772,mp-1176944,Li6V3P8O29,none,P1
2040,none,0.022820506,mp-540179,Li2Cr3(P2O7)2,none,P2_1/c
2041,none,0.022826338,mp-774352,Li3Co2(PO4)3,none,P2_1/c
2042,none,0.022832948,mp-861623,LiNi4(PO4)3,none,Cc
2043,fcc,0.022851715,mp-1040082,LiMg30WO32,0,P4/mmm
2044,none,0.022854125,mp-767947,LiCo2(PO4)2,none,Pca2_1
2045,none,0.022866704,mp-32027,Li2Mn3(P2O7)2,none,P-1
2046,none,0.022868186,mp-1100552,Li9Mn7O16,none,P-1
2047,fcc,0.022881484,mp-775647,Li2Mn3SnO8,0.083,P4_32_12
2048,none,0.022896791,mp-1101573,LiMn4P7O24,none,P-1
2049,none,0.022914158,mp-1222327,LiNd(MoO4)2,none,I-4
2050,none,0.022933339,mp-1177100,Li6V3P8O29,none,P1
2051,none,0.022946795,mp-767175,Li2Co(CO3)2,none,Fdd2
2052,none,0.022969024,mp-1176915,Li6V3P8O29,none,P1
2053,fcc,0.022971318,mp-762778,Li3FeNi3O8,0.06,C2/m
2054,fcc,0.022974447,mp-771100,Li3Ti(NiO2)4,0,C2/m
2055,none,0.02297673,mp-1176925,Li6V3P8O29,none,P1
2056,none,0.022982679,mp-1101527,LiCr4P7O24,none,P-1
2057,none,0.022988491,mp-771196,Li8Mn12Ni4O31,none,P1
2058,none,0.022996064,mp-761500,Li6V3P8O29,none,P1
2059,bcc,0.023005931,mp-761486,LiFePO4,0.166,I-4
2060,none,0.023015615,mp-1175349,Li7Mn5O12,none,P-1
2061,none,0.023023996,mp-774273,Li6V3P8O29,none,P1
2062,none,0.023027632,mp-1176856,Li7V3P8O29,none,P1
2063,none,0.023030973,mp-773579,Li6V3P8O29,none,P1
2064,none,0.023057144,mp-761499,Li6V3P8O29,none,P1
2065,none,0.023063213,mp-1176929,Li6V3P8O29,none,P1
2066,none,0.023073157,mp-31581,LiCo(PO3)4,none,C2/c
2067,fcc,0.023086127,mp-762855,Li8Fe3Ni7O20,0.074,P2/m
2068,none,0.023107811,mp-761392,LiCrPO4,none,Pnma
2069,hcp,0.023146022,mp-770411,Li2AlFeO4,0.139,C222_1
2070,none,0.023156366,mp-1176916,Li6V3P8O29,none,P1
2071,fcc,0.023156828,mp-31664,LiCrPO4,0.123,Cmcm
2072,none,0.023160939,mp-763520,LiPWO5,none,P-1
2073,none,0.023176096,mp-1100520,Li9Mn7O16,none,P-1
2074,none,0.023190495,mp-1174287,Li4Mn3O7,none,P-1
2075,none,0.023248119,mp-1176900,Li6V3P8O29,none,P3
2076,none,0.0232577,mp-772084,Li5Cu6(P2O7)4,none,P-1
2077,fcc,0.023299002,mp-769514,Li9Mn12Cu3O32,0.087,R3
2078,none,0.023299815,mp-31950,LiMn(PO3)4,none,Cc
2079,none,0.02330633,mp-761507,Li6V3P8O29,none,P1
2080,none,0.023320483,mp-10520,LiNdTiO4,none,P4/nmm
2081,none,0.023333297,mp-772469,Li6V3P8O29,none,P1
2082,none,0.023343519,mp-1176932,Li6V3P8O29,none,P1
2083,none,0.023423383,mp-763462,Li2Co3(SiO4)2,none,P1
2084,none,0.023481228,mp-1176808,Li9Cr12Co7O48,none,P1
2085,none,0.0235086,mp-1176998,Li6V3P8O29,none,C2
2086,none,0.023517064,mp-697767,LiMoP2O7,none,P2_1/c
2087,none,0.023533409,mp-773329,Li6V3P8O29,none,P1
2088,none,0.023539802,mp-1177009,Li6V3P8O29,none,P1
2089,none,0.023552592,mp-761498,Li6V3P8O29,none,P1
2090,none,0.023556974,mp-1100558,Li9Mn7O16,none,P-1
2091,none,0.023559105,mp-705329,Li3Fe2(PO4)3,none,Cc
2092,none,0.023561061,mp-767395,Li3CuSbO5,none,P1
2093,none,0.023579813,mp-705293,Li3V2(PO4)3,none,Cc
2094,none,0.023582875,mp-1013917,LiMn3P3O13,none,P2_1/m
2095,none,0.023591159,mp-763540,LiNi(CO3)2,none,P2_1
2096,none,0.023597926,mp-765615,Li6Fe5SbO12,none,C2/m
2097,none,0.023634028,mp-1176896,Li6V3P8O29,none,P3c1
2098,none,0.023635885,mp-761509,Li6V3P8O29,none,P1
2099,fcc,0.023645649,mp-771733,Li3MgV8O16,0.071,Cm
2100,fcc,0.023650637,mp-775622,Li3MnCo3O8,0.068,R-3m
2101,none,0.02366057,mp-777666,Li2V3CrO8,none,Cc
2102,none,0.023661595,mp-1201206,Li2P(HO)6,none,Ia-3
2103,none,0.023683255,mp-761517,Li4MnSi2O7,none,C2
2104,none,0.023684457,mp-1176763,LiFe2(CO3)3,none,P1
2105,none,0.02368996,mp-1176909,Li6V3P8O29,none,C2
2106,fcc,0.023696234,mp-1175506,Li9Co7O16,0.055,P2/m
2107,fcc,0.023701795,mp-768059,Li7Ni9O16,0.046,P-1
2108,hcp,0.023710705,mp-762554,Li2FeSiO4,0.146,P2_1/c
2109,none,0.023712609,mp-1174297,Li4Mn3O7,none,P-1
2110,none,0.023729052,mp-504250,LiMn4(PO4)3,none,Pnma
2111,none,0.023729678,mp-777686,Li9Mn3(WO4)7,none,R3m
2112,fcc,0.023788219,mp-775392,Li2Ti3MnO8,0.096,P4_332
2113,none,0.023795317,mp-763889,Li6V3P8O29,none,P1
2114,fcc,0.023796115,mp-772384,LiNbCoO4,0,P4_322
2115,none,0.023796739,mp-773157,Li9Cr12Co7O48,none,P1
2116,none,0.023811135,mp-1176913,Li6V3P8O29,none,Cc
2117,none,0.023826249,mp-697754,Li2V(PO3)4,none,P2_1/c
2118,none,0.023828031,mp-772461,Li6V3P8O29,none,P1
2119,fcc,0.023828676,mp-762866,Li3MnCo3O8,0.07,C2/m
2120,none,0.023830063,mp-762405,Li4Cr2Si3O10,none,C2/c
2121,none,0.023833623,mp-1176920,Li6V3P8O29,none,P1
2122,none,0.023864906,mp-861635,LiNi4(PO4)3,none,Pnnm
2123,none,0.023877922,mp-585175,LiCo(PO3)3,none,Pbcm
2124,fcc,0.02390522,mp-762649,Na3LiMn5O9,0.114,P1
2125,none,0.02393386,mp-1177925,Li2Mn2(PO4)3,none,Pbcn
2126,fcc,0.023937512,mp-1040095,LiMg30WO32,0,P4/mmm
2127,none,0.023982053,mp-1176948,Li6V3P8O29,none,P1
2128,hcp,0.023987288,mp-1222347,LiTiCrO4,0.103,Pmc2_1
2129,fcc,0.023992219,mp-1222656,Li2TiO3,0.053,Immm
2130,fcc,0.023996531,mp-1175141,Li7Mn4CoO12,0.059,P-1
2131,none,0.024000298,mp-1176926,Li6V3P8O29,none,P1
2132,fcc,0.024010475,mp-773720,LiMnSbO4,0.088,Imma
2133,fcc,0.024016577,mp-773308,Li2MnCrO4,0.068,I-4m2
2134,none,0.024043571,mp-540192,Li2MnP2O7,none,C2/c
2135,fcc,0.024044936,mp-1176867,Li8CoNi9O20,0.065,Pm
2136,none,0.024044988,mp-1100524,Li9Mn7O16,none,P-1
2137,none,0.02404928,mp-770904,Li3Mn(BO3)2,none,P-1
2138,none,0.024062262,mp-1003637,LiMn3O6,none,Cm
2139,none,0.024066075,mp-758855,LiZnBO3,none,P1
2140,none,0.024068138,mp-1176943,Li6V3P8O29,none,P1
2141,none,0.02407271,mp-761515,Li6V3P8O29,none,P1
2142,fcc,0.024102273,mp-1177950,Li2FeCuO4,0.057,I-4m2
2143,none,0.024114622,mp-771576,LiMn2(PO4)2,none,C2
2144,hcp,0.02412792,mp-775228,LiFeSiO4,0.143,Pc
2145,none,0.024156664,mp-861533,Na2Li2CoO4,none,P1
2146,none,0.02416261,mp-697753,Li3Cr2(PO4)3,none,Cc
2147,none,0.024194476,mp-761520,Li6V3P8O29,none,P1
2148,none,0.024202895,mp-763151,LiMnCO4,none,P2_1/c
2149,bcc,0.024220239,mp-772250,Li8FeO6,0.156,P-1
2150,fcc,0.024224316,mp-770627,Li2MnFeO4,0,Imma
2151,none,0.024239376,mp-585348,Li9Co3P8O29,none,P-3c1
2152,none,0.024255645,mp-763466,LiP4WO12,none,C2/c
2153,fcc,0.024255783,mp-769483,Li11(CoO4)2,0.083,C222_1
2154,fcc,0.024260602,mp-769797,Li3Fe4CoO8,0,C2/m
2155,none,0.024280976,mp-777909,Li2Cr2(PO4)3,none,C2/c
2156,none,0.024284595,mp-761490,Li6V3P8O29,none,P1
2157,none,0.024305802,mp-772299,Li6V3P8O29,none,P1
2158,fcc,0.024308934,mp-770493,Li5V2Fe5O12,0.049,C2
2159,fcc,0.024326198,mp-761972,Li7Mn14O32,0.077,R3m
2160,none,0.024347259,mp-850959,Li5Mn6(BO3)6,none,P1
2161,none,0.024374099,mp-1176902,Li6V3P8O29,none,Cc
2162,none,0.024378665,mp-781617,Li5Mn6(BO3)6,none,P1
2163,none,0.024423312,mp-772688,Li6V3P8O29,none,P1
2164,none,0.024454535,mp-773378,Li6V3P8O29,none,P1
2165,hcp,0.024469688,mp-770707,Li2AlFeO4,0.057,Pna2_1
2166,hcp,0.024477539,mp-772343,LiVNiO4,0.087,Pnma
2167,none,0.024482008,mp-1100559,Li9Mn7O16,none,P-1
2168,none,0.024495541,mp-1100544,Li9Mn7O16,none,P-1
2169,fcc,0.024505527,mp-1100545,Li9Mn7O16,0.043,P-1
2170,none,0.024521954,mp-1100547,Li9Mn7O16,none,P-1
2171,fcc,0.02454075,mp-775095,Li2Fe3CoO8,0.076,R-3m
2172,fcc,0.024541712,mp-1100546,Li9Mn7O16,0.051,P-1
2173,fcc,0.024546269,mp-1173910,Li2MnCoO4,0.04,P2/c
2174,fcc,0.024550975,mp-1175148,Li7Mn4CoO12,0.047,P-1
2175,hcp,0.024583935,mp-556301,Li6CaCeO6,0.079,P-31c
2176,none,0.024728166,mp-762799,LiFeSiO4,none,Pca2_1
2177,none,0.024734093,mp-772453,Li6V3P8O29,none,P1
2178,fcc,0.024742937,mp-765798,Li2CoNiO4,0.052,P2/m
2179,none,0.024762272,mp-759185,LiSb(PO3)4,none,C2/c
2180,fcc,0.024767418,mp-8179,LiTlO2,0,I4_1/amd
2181,fcc,0.024785786,mp-1100539,Li9Mn7O16,0.044,P-1
2182,none,0.024807536,mp-540221,LiMnP2O7,none,P2_1/c
2183,fcc,0.024811882,mp-773347,Li2MnFeO4,0,P2/m
2184,none,0.024822042,mp-767724,Li5Fe3(BO3)4,none,Pc
2185,none,0.024828379,mp-767254,LiCo2(PO4)2,none,C2
2186,none,0.024831649,mp-1177949,Li2Mn2V3O12,none,Pbcn
2187,none,0.024852525,mp-763641,LiFeSiO4,none,Pca2_1
2188,none,0.024860999,mp-1176727,LiMn3(PO4)3,none,P2_1
2189,fcc,0.024895858,mp-763924,Li4Fe3CuO8,0,R-3m
2190,none,0.024908439,mp-1176777,LiCoBO3,none,P-6
2191,none,0.024948353,mp-1100516,Li9Mn7O16,none,P-1
2192,none,0.024949368,mp-699346,LiCo2(PO3)5,none,Pc
2193,none,0.024965578,mp-772471,Li6V3P8O29,none,P1
2194,none,0.024985538,mp-764459,Li3Fe4(BO3)4,none,P1
2195,none,0.024996633,mp-761505,Li6V3P8O29,none,P1
2196,none,0.025031606,mp-1003315,LiMn4O8,none,P2_1/c
2197,none,0.025050513,mp-777867,Li2P8W3O29,none,Cc
2198,none,0.025073948,mp-1100543,Li9Mn7O16,none,P-1
2199,fcc,0.025089492,mp-763907,Li5Mn3Cr2O10,0.061,P1
2200,none,0.025090133,mp-1020057,LiLaO2,none,P2_1/c
2201,fcc,0.025093723,mp-1175162,Li7Mn4CoO12,0.049,C2/m
2202,none,0.02510849,mp-776484,Li6Sn3P8O29,none,P1
2203,none,0.025113175,mp-769439,Li5Mn6(BO3)6,none,Cc
2204,none,0.025125547,mp-1176549,LiV3O6,none,P1
2205,none,0.02512946,mp-540231,Li2FeP2O7,none,P2_1/c
2206,none,0.025170689,mp-1101528,Li3Mo(PO4)2,none,P2_1/c
2207,hcp,0.025192463,mp-762540,Li2FeSiO4,0.094,Pna2_1
2208,hcp,0.025203419,mp-764957,Li2CoSiO4,0.089,Pna2_1
2209,none,0.025210541,mp-765422,Li9V3P8O29,none,P1
2210,none,0.025253951,mp-540234,Li2NiP2O7,none,P2_1/c
2211,fcc,0.025255472,mp-771995,LiFeO2,0.045,P-1
2212,fcc,0.025261028,mp-770979,Li2AlVO4,0.057,P-1
2213,hcp,0.025273965,mp-770704,Li2AlFeO4,0.124,P2_1/c
2214,none,0.025341842,mp-765032,Li6V3P8O29,none,P1
2215,fcc,0.025344063,mp-771555,Li5Fe5(NiO6)2,0.031,C2
2216,none,0.025360413,mp-1176921,Li6V3P8O29,none,P1
2217,fcc,0.025373145,mp-777280,Li3Mn(NiO3)2,0.056,C2/m
2218,none,0.025414067,mp-771544,LiMn2(PO4)2,none,P-1
2219,none,0.025421318,mp-585226,Li3Fe2(PO4)3,none,C2/c
2220,none,0.02547563,mp-19408,LiV2O5,none,Pnma
2221,none,0.025483783,mp-1100530,Li9Mn7O16,none,P-1
2222,none,0.025485187,mp-1211174,LiNd(MoO4)2,none,P2/c
2223,none,0.025501019,mp-771575,Li2TiMn3O8,none,Cmc2_1
2224,hcp,0.025518044,mp-770733,Li2AlFeO4,0.118,Pna2_1
2225,none,0.025541651,mp-772628,Li3V(BO3)2,none,P2_1/c
2226,none,0.025606326,mp-777285,Li9P8W3O29,none,P-3c1
2227,none,0.025623374,mp-1176912,Li6V3P8O29,none,P1
2228,none,0.025626531,mp-733849,Li2P2H2O7,none,R-3m
2229,fcc,0.025636132,mp-775060,LiTiFeO4,0,P4_322
2230,none,0.025699369,mp-764486,Li3Fe4(BO3)4,none,P1
2231,none,0.025703708,mp-26407,Li2SnP2O7,none,P2_1/c
2232,none,0.025713245,mp-771654,LiMn2(PO4)2,none,P-1
2233,none,0.025716919,mp-778730,LiMn2(PO4)2,none,P1
2234,none,0.025733286,mp-774794,Li5Sm3(SbO6)2,none,P1
2235,fcc,0.025755928,mp-1175125,Li7Mn4CoO12,0.067,P-1
2236,none,0.025767776,mp-1177079,Li5Ta12O32,none,Pmmn
2237,fcc,0.025768169,mp-1172965,Li16(CoO4)3,0.096,P1
2238,none,0.025819339,mp-31817,Li2Fe(PO3)4,none,C2/c
2239,none,0.025841424,mp-1177068,Li6V3P8O29,none,P1
2240,none,0.025841929,mp-585424,LiCrPO4,none,P2_1/c
2241,none,0.02584816,mp-770886,Li3FeO3,none,Pnma
2242,none,0.025860814,mp-762574,Li3Mn3(PO4)4,none,Pc
2243,none,0.025880497,mp-1193296,LiTi2O4,none,Pnnm
2244,fcc,0.025881125,mp-763676,Li4Ti2V5O12,0.049,P2_1
2245,hcp,0.025894677,mp-767393,Li15Ti11Nb5O42,0.085,P3
2246,hcp,0.025897745,mp-778565,Li2AlFeO4,0.007,Pmn2_1
2247,none,0.025898954,mp-780199,Li5Mn6(BO3)6,none,P1
2248,none,0.025913327,mp-1223167,Li7Eu3(MoO4)8,none,P1
2249,none,0.025914887,mp-773044,LiCuO2,none,Cm
2250,fcc,0.025932975,mp-768015,LiMnCoO4,0.078,Imma
2251,none,0.025946926,mp-1174275,Li4Mn3O7,none,P-1
2252,none,0.025972089,mp-772454,Li6V3P8O29,none,P1
2253,none,0.025999032,mp-775462,LiFeCuO4,none,Imma
2254,none,0.026015093,mp-776036,LiV6O15,none,P2_1/c
2255,none,0.026016817,mp-31723,Li3Cr(PO4)2,none,P2_1/c
2256,none,0.026018231,mp-1176749,LiFe2(PO4)2,none,Pmn2_1
2257,fcc,0.026050089,mp-769833,Li3Fe4SnO8,0,C2/m
2258,fcc,0.026054787,mp-773461,Li4MgCo3O8,0.055,R-3m
2259,none,0.026056295,mp-765330,Li6V3P8O29,none,C2
2260,hcp,0.026083039,mp-770629,Li2AlFeO4,0.092,Pnma
2261,none,0.026113622,mp-767970,Li3Mn4(PO4)6,none,P1
2262,none,0.026123745,mp-1100538,Li9Mn7O16,none,P-1
2263,fcc,0.026128512,mp-777603,LiMnCo3O8,0.103,C2/m
2264,none,0.026135887,mp-765261,Li3Cr(BO3)2,none,P2_1/c
2265,fcc,0.026159532,mp-1177771,Li2VFeO4,0,Imma
2266,fcc,0.026164168,mp-762660,Li2(NiO2)3,0.088,P1
2267,none,0.026171989,mp-1177721,Li3Fe4(BO3)4,none,P1
2268,none,0.026173016,mp-32088,LiMoP4O13,none,P1
2269,fcc,0.026179318,mp-1100534,Li9Mn7O16,0,P-1
2270,none,0.026180298,mp-767778,Li2V3Si3O10,none,C2/c
2271,none,0.026217251,mp-773944,Li4Mn2(PO4)3,none,P-1
2272,none,0.026219651,mp-1100515,Li9Mn7O16,none,P-1
2273,none,0.026223427,mp-777032,Li3V5O12,none,P2_1/c
2274,fcc,0.026223736,mp-1100518,Li9Mn7O16,0.058,P-1
2275,none,0.026229048,mp-540023,Li5Mn9(P2O7)8,none,P1
2276,none,0.026251398,mp-772524,LiTi2(PO4)3,none,P1
2277,fcc,0.026271285,mp-772925,Li4Ti5O12,0.082,P-1
2278,hcp,0.026295876,mp-763635,LiFeSiO4,0.148,Pna2_1
2279,none,0.026301746,mp-778232,Li2V3Cr2O12,none,Pbcn
2280,fcc,0.026334183,mp-756597,Li2HfO3,0.052,C2/m
2281,none,0.026334798,mp-26585,Li5Sb2P5O18,none,P-1
2282,none,0.026354777,mp-1198996,K3Li2Nb5O15,none,P4/mbm
2283,fcc,0.026356953,mp-1100529,Li9Mn7O16,0.044,P-1
2284,hcp,0.026358049,mp-782651,Li3MnNb4O12,0.091,P1
2285,none,0.026380934,mp-540356,LiFe(PO3)4,none,C2/m
2286,none,0.02638988,mp-764601,Li7V3P8O29,none,C2/c
2287,fcc,0.026439479,mp-763993,Li2TiVO4,0.026,P-1
2288,fcc,0.026442564,mp-773984,Li3Ti6Co3O16,0.059,P2_1
2289,none,0.026449091,mp-761912,Li7V3P8O29,none,P1
2290,none,0.02649988,mp-1176942,Li6V3P8O29,none,P1
2291,none,0.02650537,mp-1100537,Li9Mn7O16,none,P-1
2292,none,0.026513671,mp-560293,LiLa5Ti8O24,none,Pmm2
2293,none,0.026541828,mp-540355,LiCoP2O7,none,P2_1/c
2294,none,0.02656415,mp-705468,Li3Mn3(PO4)4,none,C2
2295,none,0.026579556,mp-772460,Li6V3P8O29,none,P1
2296,fcc,0.026586285,mp-1174320,Li4Mn3O7,0.066,P-1
2297,none,0.0265914,mp-1202839,LiCd4(GeO3)5,none,P-1
2298,none,0.026603435,mp-1176938,Li6V3P8O29,none,P1
2299,none,0.026609724,mp-763881,Li6V3P8O29,none,P1
2300,fcc,0.026619656,mp-1222380,LiCoAsO4,0,Imma
2301,hcp,0.026620372,mp-778296,LiNiPO4,0.113,Pnma
2302,none,0.026634761,mp-16947,LiAlGeO4,none,R-3
2303,none,0.026635383,mp-1222506,LiY9(Si3O13)2,none,P3
2304,none,0.026638116,mp-1100532,Li9Mn7O16,none,P-1
2305,none,0.02667453,mp-778149,Li6Ti3P8O29,none,P1
2306,none,0.026675766,mp-782654,Li5Mn6(BO3)6,none,P1
2307,none,0.026676133,mp-26223,Li4Cu(PO4)2,none,P2_1/c
2308,none,0.026678556,mp-753864,Sr2Li2Nb4O13,none,I4/mmm
2309,none,0.026698452,mp-774918,Li3La14(CuO7)4,none,C2/m
2310,none,0.026716592,mp-767843,Li5Mn6(BO3)6,none,P1
2311,none,0.026720653,mp-1100542,Li9Mn7O16,none,P-1
2312,fcc,0.026762131,mp-770790,Li2FeNi3O8,0.079,R-3m
2313,fcc,0.026764451,mp-6944,LiTiO2,0,Fd-3m
2314,fcc,0.026778303,mp-769726,Li3(FeO2)4,0.053,R-3m
2315,hcp,0.026779219,mp-767146,Li7Ti12NbO30,0.102,R3
2316,none,0.026841229,mp-557861,Li2CaTa2O7,none,I4/mmm
2317,fcc,0.026847838,mp-1173885,Li2MnCoO4,0,P-1
2318,none,0.026863513,mp-769645,LiCo(CO3)2,none,R-3
2319,none,0.026864788,mp-770906,Li3Mn(BO3)2,none,P2_1/c
2320,none,0.026878691,mp-686110,Li(ReO3)5,none,P-1
2321,none,0.026894678,mp-777033,Li9V19O48,none,P1
2322,none,0.02690037,mp-997545,Li3Mn3(PO4)4,none,P1
2323,fcc,0.026930979,mp-850359,Li5Fe5(CoO6)2,0.033,C2
2324,fcc,0.026941843,mp-1100531,Li9Mn7O16,0.062,P-1
2325,fcc,0.026960649,mp-1232439,Li7Mn5O12,0,P-1
2326,fcc,0.026985088,mp-769962,Li4TiFe3O8,0,C2/m
2327,fcc,0.026994209,mp-1174270,Li4Mn3CoO8,0.069,C2/m
2328,fcc,0.027000125,mp-1175195,Li7Mn4CoO12,0.068,P1
2329,fcc,0.027011861,mp-1174000,Li5Mn(CoO4)2,0.048,P2
2330,none,0.027054982,mp-1176947,Li6V3P8O29,none,P-1
2331,fcc,0.027070456,mp-1211002,LiTi3Zn2O8,0.028,P4_132
2332,none,0.027071766,mp-31580,Li2CoP2O7,none,P2_1/c
2333,fcc,0.027107564,mp-777872,Li2Fe3CuO8,0.068,P4_332
2334,fcc,0.027112481,mp-1174741,Li5Mn3O8,0.064,P-1
2335,none,0.027126422,mp-772420,Li2Co3SnO8,none,P6_3mc
2336,fcc,0.027141438,mp-1175275,Li7Mn4CoO12,0.047,P2/m
2337,fcc,0.027147317,mp-771615,Li2TiVO4,0.031,Imma
2338,none,0.027150882,mp-761298,LiVPO4,none,Pnma
2339,none,0.027196433,mp-763025,LiCr(PO3)4,none,C2/c
2340,none,0.027196677,mp-752433,LiLa3Ti4O12,none,Cm
2341,none,0.027232811,mp-777068,LiMnP2O7,none,Pc
2342,fcc,0.027243935,mp-770102,Li3Al2VO6,0.068,C2/m
2343,none,0.027252372,mp-545346,LiGaAs2O7,none,C2
2344,none,0.027261191,mp-763502,K4Li5(FeO4)2,none,P1
2345,none,0.027296778,mp-684119,LiTi(PO3)5,none,P2_1/c
2346,none,0.027301298,mp-850446,Li3Fe4(BO3)4,none,P1
2347,none,0.027305496,mp-851002,Li4Mn2(PO4)3,none,P2_1/c
2348,none,0.027313335,mp-697855,Li2Cr3(P2O7)2,none,P-1
2349,fcc,0.027360379,mp-770628,Li2CrO3,0.068,C2/c
2350,fcc,0.027367046,mp-769550,Li2Mn5(FeO6)2,0.086,Cc
2351,none,0.027368655,mp-772370,Li2Ni3WO8,none,P6_3mc
2352,none,0.027374505,mp-777464,Li4Ti5Cr3O16,none,Cm
2353,none,0.027376877,mp-771409,Li2FeBO4,none,P2_1/c
2354,fcc,0.027380357,mp-769811,Li3Mn4FeO8,0,C2/m
2355,none,0.027389002,mp-769791,Li4CoO3,none,Cc
2356,fcc,0.02739742,mp-1175343,Li7Mn5O12,0.073,P-1
2357,hcp,0.027443163,mp-773356,Li8VO6,0.072,P-1
2358,none,0.027457118,mp-585209,Li2Mo(PO4)2,none,P-3
2359,none,0.027505024,mp-765711,Li9V3P8O29,none,P1
2360,none,0.027522951,mp-1176873,Li7V3P8O29,none,C2
2361,none,0.027531711,mp-1177466,Li4Co3Sn5O16,none,Cm
2362,none,0.027568028,mp-1100535,Li9Mn7O16,none,P-1
2363,none,0.027570069,mp-1177698,Li3Mn2(P2O7)2,none,P1
2364,hcp,0.027591975,mp-1176805,Li8VO6,0.07,R-3
2365,none,0.027596089,mp-540260,Li2Cr(PO3)4,none,C2/c
2366,none,0.02759666,mp-776850,Li2Mg2(WO4)3,none,Pc
2367,fcc,0.027598356,mp-776204,LiV3O4,0,Cmmm
2368,none,0.02760797,mp-853270,Li5Mn6(BO3)6,none,P1
2369,fcc,0.027621158,mp-772979,Li3Zn3(Ge3O8)2,0.087,P2_1
2370,none,0.027626345,mp-776874,Li2V3(FeO6)2,none,Pbcn
2371,none,0.027627805,mp-756294,Li2Ti2O5,none,Ccc2
2372,none,0.027640327,mp-765245,Li7Mn4(PO4)6,none,P1
2373,none,0.02764153,mp-504134,LiNi3P3O11,none,P2_1/c
2374,none,0.027643893,mp-770469,Li5TaO5,none,C2/c
2375,fcc,0.027646806,mp-780711,Li4Mn3O8,0.1,R32
2376,fcc,0.027648287,mp-1177800,Li2VCr3O8,0.078,R-3m
2377,none,0.027656245,mp-851014,Li5Mn6(BO3)6,none,P1
2378,fcc,0.027675139,mp-776996,Li2CoSnO4,0.059,I-4m2
2379,fcc,0.027704682,mp-762749,Li6MnNi7O16,0.084,P-1
2380,none,0.027712762,mp-762707,Li3Fe(PO4)2,none,Pc
2381,none,0.027733175,mp-773182,Li4Cr3Sn5O16,none,Cm
2382,none,0.02776667,mp-1175325,Li7Mn5O12,none,P-1
2383,none,0.027776287,mp-761616,LiMnPO5,none,P2_1/c
2384,fcc,0.027784597,mp-771116,Li3Mn4CrO8,0,C2/m
2385,fcc,0.027799967,mp-694855,Li2MoO3,0.023,P-1
2386,none,0.027803936,mp-782640,K8Li3Cr4O16,none,P1
2387,none,0.027861012,mp-768047,Li3Cr4(PO4)6,none,P1
2388,none,0.027879942,mp-773718,Li4Fe2(PO4)3,none,P-1
2389,none,0.027887898,mp-1176875,Li9V3P8O29,none,P1
2390,fcc,0.027898577,mp-775040,Li2MnSnO4,0.079,I-4m2
2391,none,0.027906516,mp-761291,Li3FeB4O9,none,P2_1/m
2392,fcc,0.027907842,mp-765929,Li5Mn5(FeO6)2,0.062,C2
2393,none,0.027908227,mp-1211145,LiSm(MoO4)2,none,P2/c
2394,none,0.02793477,mp-850242,Li5Mn6(BO3)6,none,P1
2395,fcc,0.027944867,mp-1174038,Li5Mn(CoO4)2,0.048,P1
2396,none,0.027968888,mp-1214370,BaLiRu5O11,none,P6_3/mmc
2397,none,0.027981401,mp-540459,LiCr4(PO4)3,none,P-1
2398,fcc,0.027984851,mp-705765,Li3Mn8O16,0.084,Pmmn
2399,none,0.027985496,mp-1101513,LiV4P7O24,none,P-1
2400,none,0.027986307,mp-772938,Li2Ta4O11,none,R-3c
2401,none,0.027997996,mp-1101597,LiCrP2O7,none,P2_1/m
2402,fcc,0.028028311,mp-770200,Li2Cr3SnO8,0.056,R-3m
2403,none,0.028062438,mp-769426,LiCo2(PO4)2,none,Pc
2404,none,0.028093159,mp-1174173,Li4Mn3CoO8,none,P2/m
2405,fcc,0.028105571,mp-1175198,Li7Mn4CoO12,0.069,P1
2406,none,0.028118761,mp-1174279,Li4Mn3CoO8,none,P-1
2407,none,0.028153759,mp-771530,LiV3O8,none,Pm
2408,none,0.028173996,mp-782820,Li5Mn6(BO3)6,none,P1
2409,none,0.028183739,mp-31603,LiCo(PO3)4,none,Cc