,anion_type,e_above_hull,mp_id,pretty_formula,rms,spacegroup.symbol
2410,fcc,0.028185254,mp-773288,Li3Fe2CuO6,0,C2/m
2411,fcc,0.028188627,mp-770982,Li2VFeO4,0.041,P-1
2412,none,0.028206017,mp-777784,Li3Mn4(BO3)4,none,P1
2413,none,0.028226682,mp-31972,Li3Mn(PO4)2,none,P2_1/c
2414,fcc,0.02824155,mp-1177344,Li4VFe3O8,0,P2/m
2415,none,0.028253879,mp-767757,Li3Cr4(PO4)6,none,P1
2416,none,0.028287876,mp-766983,LiCa2Nb3O10,none,P2_1/c
2417,none,0.028302461,mp-763622,Li2(CoO2)3,none,Cc
2418,none,0.028332484,mp-775292,Li2V(Si2O5)3,none,Cmce
2419,none,0.028338446,mp-1097049,LiMn2P2O9,none,Pnma
2420,none,0.028351539,mp-705341,Li3Mo4P9O32,none,P-42_1c
2421,none,0.028354777,mp-540447,LiNi(PO3)3,none,P-1
2422,none,0.028362496,mp-1177462,Li4Cr2(PO4)3,none,P-1
2423,fcc,0.028384334,mp-772090,Li4Ti9O20,0.153,I4_1/a
2424,none,0.028420221,mp-763366,LiNiCO4,none,P2_1/c
2425,none,0.028425029,mp-861753,LiNi4(PO4)3,none,Pm
2426,none,0.028444057,mp-1198595,LiB6(H5O)2,none,C2/m
2427,fcc,0.02846475,mp-1173960,Li3Co2O5,0.069,P-1
2428,none,0.02847408,mp-763660,LiMn(PO3)4,none,C2/c
2429,none,0.028476175,mp-764502,Li3Fe4(BO3)4,none,P1
2430,fcc,0.028509552,mp-776147,Li2TiFe3O8,0.067,P2_1
2431,fcc,0.028514961,mp-1174737,Li5Mn3O8,0.063,P-1
2432,fcc,0.028530673,mp-1176726,LiFe3O4,0,C2/c
2433,none,0.028533886,mp-776645,Li2MnP2O7,none,P1
2434,fcc,0.028539627,mp-1175216,Li7Mn4CoO12,0.067,P1
2435,none,0.028541856,mp-764439,Li2MgCo13O28,none,P1
2436,none,0.028554447,mp-1177207,Li4V5Cr3O16,none,P1
2437,none,0.028584702,mp-31964,Li2Mn(PO3)4,none,C2/c
2438,fcc,0.028609574,mp-773337,Li5Mn7O12,0.036,C2
2439,fcc,0.028616148,mp-1175331,Li7Mn5O12,0.049,P-1
2440,fcc,0.028626548,mp-1177911,Li2Mn3SbO8,0.081,R-3m
2441,none,0.028643231,mp-761644,Li2Fe3Si3O10,none,C2/c
2442,none,0.028652558,mp-1177912,Li3Fe2(P2O7)2,none,P1
2443,none,0.028656417,mp-25751,K2Li2FeO4,none,P2_1/c
2444,none,0.028659615,mp-781670,Li5Mn6(BO3)6,none,P1
2445,none,0.028662651,mp-770699,KLiMnO2,none,Cccm
2446,hcp,0.028672682,mp-755821,Li5Cu(PO4)2,0.122,Pm
2447,none,0.028673322,mp-849506,Li3Fe2(P2O7)2,none,P1
2448,none,0.028676965,mp-850244,Li5Mn6(BO3)6,none,P1
2449,none,0.028700894,mp-851018,Li5Mn6(BO3)6,none,P1
2450,fcc,0.02872592,mp-31913,Li3Mn2(PO4)3,0.122,C2/m
2451,none,0.028828564,mp-780586,LiCoP2O7,none,P1
2452,none,0.028830068,mp-850073,Li5Mn6(BO3)6,none,P1
2453,fcc,0.028838864,mp-778768,Li2Co3NiO8,0.082,C2/m
2454,none,0.028842258,mp-722902,LiH2NO3,none,P2_1/c
2455,fcc,0.02886178,mp-771849,Li4Mn3SnO8,0.063,C2/m
2456,none,0.028867171,mp-776035,Li9Cu3P8O29,none,P-3c1
2457,none,0.028881736,mp-697800,LiFe4P7O24,none,P-1
2458,none,0.028896143,mp-761674,Li2Co3SbO8,none,P6_3mc
2459,none,0.028900096,mp-762549,Li2Fe3(P2O7)2,none,P-1
2460,fcc,0.0289002,mp-1175214,Li7Mn4CoO12,0.047,P1
2461,fcc,0.028900828,mp-765746,Li2MnCu3O8,0.067,P4_332
2462,none,0.028936689,mp-6521,LiLaTiO4,none,P4/nmm
2463,fcc,0.028972391,mp-1101736,LiFe3O4,0,P-1
2464,fcc,0.028995422,mp-773525,LiFe3O4,0,P2/m
2465,none,0.029001316,mp-850243,Li5Mn6(BO3)6,none,P1
2466,none,0.029014283,mp-770760,Li2TiVO5,none,P4/nmm
2467,none,0.029015593,mp-776108,LiNbO3,none,Pbcm
2468,none,0.029049336,mp-752615,Li4(CuO2)3,none,Cm
2469,none,0.029054562,mp-540276,LiVPO5,none,P2_1/c
2470,hcp,0.029092553,mp-763956,Li3Mn(PO4)2,0.125,P2_1/m
2471,none,0.029098068,mp-767153,LiCo2(PO4)2,none,Pc
2472,fcc,0.029112741,mp-773975,Li9Fe23O32,0,C2
2473,none,0.029122911,mp-31667,LiCr2(PO4)3,none,P2_1/c
2474,none,0.029127125,mp-764648,LiTiO2,none,P6_3/mmc
2475,hcp,0.029141055,mp-769539,Li7VGeO8,0.118,P1
2476,none,0.029144277,mp-705356,Li2Fe(PO3)5,none,P2_1/m
2477,hcp,0.029161508,mp-1210825,Li2Zn2W2O9,0.075,P-3c1
2478,none,0.029182475,mp-540275,LiCo(PO3)3,none,P-1
2479,none,0.029183311,mp-850917,LiFePO4,none,Pnma
2480,fcc,0.029188403,mp-1174771,Li6Mn3CoO10,0.064,P1
2481,none,0.029188424,mp-850434,Li5Mn6(BO3)6,none,P1
2482,fcc,0.02919559,mp-779166,LiCo3NiO8,0.107,R-3m
2483,none,0.029200614,mp-1222486,Li5Al(SiO4)2,none,C2
2484,fcc,0.029219596,mp-853131,Li2V3CrO8,0.063,R-3m
2485,none,0.029226481,mp-1177099,Li5Mn3(BO3)4,none,Pc
2486,none,0.029232802,mp-1177265,Li4V2(PO4)3,none,Pbcn
2487,none,0.029245054,mp-673024,LiSn4(PO4)3,none,R3c
2488,fcc,0.029265452,mp-769728,Li3Mn4O8,0.08,C2/m
2489,fcc,0.029316428,mp-780161,LiMnO2,0.067,P1
2490,none,0.029339084,mp-762788,LiMnP2O7,none,P2_1/c
2491,fcc,0.029349482,mp-770608,Li3Mn3O8,0.093,P4_332
2492,fcc,0.029357413,mp-764985,Li8Fe3Co7O20,0.068,Pm
2493,none,0.029357515,mp-764714,Li3Fe4(BO3)4,none,P1
2494,none,0.029374807,mp-1176966,Li6P8W3O29,none,P1
2495,none,0.029378412,mp-766650,LiCrCO4,none,Pnma
2496,fcc,0.029392753,mp-771398,Li3Fe3CuO8,0.053,R-3m
2497,fcc,0.029405932,mp-698705,Li4Mn13O24,0.093,P1
2498,none,0.029456457,mp-764586,Li3Fe4(BO3)4,none,P1
2499,fcc,0.02946239,mp-850231,Li2TiFe3O8,0.066,R-3m
2500,fcc,0.029474681,mp-1173893,Li2MnCoO4,0.064,C2/m
2501,fcc,0.029493063,mp-762958,Li6MnNi7O16,0.075,P1
2502,none,0.029498115,mp-764451,Li3Fe4(BO3)4,none,Pc
2503,none,0.029505224,mp-776665,Li2MnP2O7,none,P2_1/c
2504,fcc,0.029512881,mp-1222301,LiTiO2,0,P4/mmm
2505,none,0.029524472,mp-767957,Li3Mn4(PO4)6,none,P1
2506,fcc,0.02953075,mp-763066,Li6Fe3Co7O20,0.085,P2/m
2507,none,0.029563879,mp-776769,Li2Fe2(PO4)3,none,C2/c
2508,fcc,0.029614382,mp-1222526,Li5Mn2NiO8,0.047,C2/m
2509,none,0.02961956,mp-504260,LiCu4(PO4)3,none,Pnma
2510,fcc,0.029623789,mp-761325,Li2MnSiO4,0.096,I-42m
2511,none,0.029628835,mp-1176782,LiCo2(PO4)2,none,Pc
2512,none,0.029636311,mp-1177821,Li2V3FeO8,none,Cc
2513,hcp,0.029645499,mp-754937,LiTi3O6,0.13,Cm
2514,fcc,0.029658583,mp-771288,Li3Cr4O8,0.062,R-3m
2515,none,0.029665983,mp-705367,LiV4P7O24,none,P-1
2516,fcc,0.029667666,mp-775402,Li4(NiO2)7,0.086,P-1
2517,fcc,0.029690292,mp-690542,Li4WO5,0.073,I4
2518,fcc,0.029698087,mp-868673,Li15Mn15SiO32,0.081,P1
2519,none,0.029710015,mp-1174149,Li4Mn3CoO8,none,P-1
2520,none,0.029738916,mp-775524,Li2V3FeO8,none,Cmc2_1
2521,none,0.02975017,mp-540304,LiMo(PO3)4,none,C2/c
2522,fcc,0.029765225,mp-771548,Li5Mn2Ni5O12,0.045,C2
2523,none,0.029843787,mp-540259,Li2V(PO4)2,none,P2_1/c
2524,none,0.029852673,mp-32022,LiMnP2O7,none,P2_1/c
2525,none,0.029857652,mp-1222571,LiAlSi3O8,none,P-1
2526,fcc,0.02986019,mp-775697,Li3Mn2CrO6,0.047,C2/m
2527,fcc,0.029868005,mp-1173929,Li2MnCoO4,0.042,C2/c
2528,none,0.029871862,mp-705002,Li3V4P9O32,none,P-42_1c
2529,fcc,0.029874229,mp-1175317,Li7Mn5O12,0.061,P-1
2530,fcc,0.029911084,mp-763089,LiFeCo3O8,0.092,R-3m
2531,none,0.029950595,mp-771579,Li7W5O16,none,P1
2532,none,0.029953849,mp-1177862,Li2PtO2,none,Immm
2533,none,0.029955216,mp-756861,LiLa4Ti3O12,none,P-1
2534,fcc,0.029973365,mp-1177870,Li2TiFe3O8,0.067,P1
2535,fcc,0.029975576,mp-1036528,LiMg14AlO16,0.038,P4/mmm
2536,fcc,0.030001415,mp-763579,Li4Cr5O10,0.061,P-1
2537,fcc,0.03000647,mp-1175201,Li7Mn4CoO12,0.067,P1
2538,none,0.030006766,mp-763590,K4Li3(FeO4)2,none,P1
2539,none,0.030010739,mp-1101570,Li3Mn(PO4)2,none,P2_1
2540,fcc,0.030014673,mp-1222391,LiV(FeO2)4,0,C2/m
2541,none,0.030028277,mp-1176878,Li7V3P8O29,none,P1
2542,none,0.030035345,mp-762743,Li2Mn2(PO4)3,none,P1
2543,fcc,0.030039692,mp-1176738,LiMn7O14,0.085,C2/c
2544,none,0.030041611,mp-767225,LiFe2(PO4)2,none,Pc
2545,none,0.030058939,mp-1211052,Li2Fe2(WO4)3,none,Pbcn
2546,none,0.030066589,mp-850174,Li4Cu2Ni5O12,none,P2_1
2547,fcc,0.030068365,mp-763982,Li3TiV2O6,0,C2/m
2548,none,0.030075674,mp-1222541,LiFeSiO4,none,Pc
2549,none,0.030088255,mp-31837,LiFeP2O7,none,Cc
2550,none,0.03009459,mp-762487,LiFeP2O7,none,P2_1/c
2551,none,0.030097345,mp-765555,Li2Mn(PO4)2,none,P2_1/c
2552,none,0.030106102,mp-775511,KLi(WO3)6,none,Cm
2553,fcc,0.030118704,mp-34052,Li7Ti7O16,0,R3m
2554,fcc,0.030142784,mp-764806,Li3CrCo3O8,0.066,C2/m
2555,none,0.030165623,mp-778305,Li3V2(PO4)3,none,Cc
2556,none,0.030172878,mp-763414,Li2P5WO15,none,P2_1/m
2557,fcc,0.030180955,mp-772355,Li3Cu(NiO2)4,0,C2/m
2558,fcc,0.030183872,mp-771719,Li4TiNi3O8,0,R-3m
2559,none,0.030211463,mp-850264,Li5Mn6(BO3)6,none,P1
2560,fcc,0.030213497,mp-698647,LiVO2,0,P222
2561,hcp,0.030221687,mp-770260,Li8MnO6,0.074,R-3
2562,fcc,0.030223852,mp-780305,Li6Fe5O12,0.071,P1
2563,none,0.03022522,mp-776037,LiV4O10,none,P-1
2564,none,0.030227584,mp-540417,LiVP2O7,none,P2_1/c
2565,hcp,0.030228883,mp-775681,Li16V3Ga13O32,0.005,P1
2566,none,0.030238482,mp-766433,Sr3Li4Nb6O20,none,P1
2567,none,0.030239439,mp-771900,Li3AlCoO4,none,I4_1/a
2568,fcc,0.030244726,mp-770537,LiMn2O3,0.011,C2/c
2569,fcc,0.030251396,mp-770539,Li5Ti2Ni5O12,0.04,C2
2570,fcc,0.030279139,mp-780207,Li5FeO4,0.087,P1
2571,none,0.030309422,mp-540311,Li3V(PO4)2,none,P2_1/c
2572,hcp,0.03031274,mp-771068,Li2FeBO4,0.131,Pc
2573,none,0.03032891,mp-540344,Li3V(PO4)2,none,P2_1/c
2574,fcc,0.030359948,mp-1100484,Li9Mn7O16,0.066,C2/m
2575,none,0.030373862,mp-1211203,LiCe(WO4)2,none,P-1
2576,none,0.030377532,mp-766995,LiLa3Ti2O9,none,P2_1/c
2577,fcc,0.030381858,mp-632491,Li(NiO2)2,0,Fd-3m
2578,fcc,0.030402022,mp-775791,Li2TiFe2O5,0.062,P1
2579,fcc,0.030483631,mp-769702,LiMn4O8,0.094,C2/m
2580,none,0.030494278,mp-1178024,Li2Cr2O7,none,C2/c
2581,fcc,0.030546697,mp-771810,Li2MnNi3O8,0.072,R-3m
2582,fcc,0.030552606,mp-775106,Li2MnV3O8,0.088,R3m
2583,none,0.030588371,mp-32495,Li3V3(PO4)4,none,P2_1/c
2584,none,0.03060016,mp-705355,Li2Mn(PO3)5,none,P2_1/m
2585,none,0.030605906,mp-697792,LiMn2(PO4)3,none,Cc
2586,fcc,0.030608195,mp-761722,LiVCoO4,0.088,P4_322
2587,hcp,0.030617076,mp-765810,Li3Nb4VO12,0.074,P1
2588,fcc,0.030621237,mp-769463,Li11Ti8Fe5O32,0.086,P1
2589,hcp,0.030634169,mp-773438,Li5Cu(PO4)2,0.121,P1
2590,hcp,0.03066906,mp-780392,Li5Cu(PO4)2,0.122,P1
2591,fcc,0.030670464,mp-775811,LiVFeO4,0.068,P4_322
2592,none,0.030671195,mp-690581,Li6Mo2O7,none,Pma2
2593,none,0.030680796,mp-31631,LiCr2(PO4)3,none,P-1
2594,fcc,0.030692459,mp-997538,Li9Ni15O28,0.08,P-1
2595,fcc,0.030703,mp-1175268,Li7Mn4CoO12,0.068,C2/m
2596,none,0.030725266,mp-26303,Li6Cu9(PO4)8,none,P-1
2597,hcp,0.030745695,mp-867613,LiTi4O8,0.133,P1
2598,none,0.030748073,mp-540313,LiFe(PO3)3,none,P-1
2599,none,0.030772402,mp-705376,LiFe5(P2O7)4,none,P-1
2600,none,0.030790261,mp-1178142,KLiSnO2,none,C2/m
2601,none,0.030790898,mp-540309,Li3Mo2(PO4)3,none,C2/m
2602,none,0.030794595,mp-780188,Li6Fe5O12,none,C2
2603,none,0.030830407,mp-775354,Li5NiO4,none,Aea2
2604,fcc,0.030840275,mp-762386,Li3(NiO2)5,0.086,P1
2605,none,0.030844038,mp-776789,Li5Mn6(BO3)6,none,P1
2606,none,0.030844997,mp-756519,Li(ReO3)4,none,Immm
2607,none,0.030848289,mp-1101500,LiNi2(PO3)5,none,Pc
2608,fcc,0.030860184,mp-763028,Li4FeCo9O20,0.099,P1
2609,none,0.03086848,mp-1177630,Li3Mn4(BO3)4,none,P1
2610,none,0.030873049,mp-850245,Li5Mn6(BO3)6,none,Cm
2611,fcc,0.030917455,mp-775109,Li2TiCo3O8,0.072,R-3m
2612,none,0.030946214,mp-773516,Li3NiO3,none,P4_2/mnm
2613,fcc,0.030987915,mp-776654,Li7V5O12,0.052,C2
2614,fcc,0.031000218,mp-1173936,Li3Mn2CoO6,0.053,C2/m
2615,none,0.031015763,mp-1194301,Li3CuB3O7,none,P-1
2616,hcp,0.031027144,mp-771071,Li2FeBO4,0.13,Pna2_1
2617,none,0.031031725,mp-705432,Li6Ni5(P2O7)4,none,P-1
2618,fcc,0.031048548,mp-1177575,Li3Nb(FeO2)4,0,C2/m
2619,hcp,0.031052629,mp-775324,Li11Co12(PO4)12,0.123,P-1
2620,none,0.0310586,mp-775331,LiVO2,none,Imma
2621,none,0.031080105,mp-1222932,Li7Ho3(MoO4)8,none,P1
2622,none,0.031083178,mp-850454,Li3Mn2(P2O7)2,none,Pc
2623,none,0.031087025,mp-705154,LiCr4P7O24,none,P-1
2624,none,0.031095565,mp-1174262,Li4Mn3CoO8,none,P-1
2625,none,0.031136497,mp-766153,LiNiBO3,none,Cc
2626,fcc,0.03113702,mp-771509,Li5Mn5Cr2O12,0.04,C2
2627,none,0.031206968,mp-764703,Li3Fe4(BO3)4,none,P1
2628,none,0.031219919,mp-1177139,Li5Fe2P5O18,none,P-1
2629,none,0.031238838,mp-1177063,Li9Cr12Ni7O48,none,P1
2630,none,0.031251484,mp-1218571,Sr3Li4Nb6O20,none,Amm2
2631,none,0.031269113,mp-764340,Li2FeSiO4,none,Pna2_1
2632,none,0.031273225,mp-765660,Li4Mn2V3O12,none,P2_1/c
2633,fcc,0.031303448,mp-1100482,Li9Mn7O16,0.066,P2/m
2634,none,0.031323357,mp-774071,Li2Mn3(CoO4)3,none,P-1
2635,fcc,0.031333095,mp-1100496,Li9Mn7O16,0.064,C2/m
2636,none,0.031337312,mp-763116,LiV(CO3)2,none,I-42d
2637,hcp,0.031350674,mp-531409,Li7Nb8O24,0.098,P1
2638,none,0.031356809,mp-767253,LiFeSiO4,none,C222_1
2639,none,0.031358736,mp-773074,LiZr2(PO4)3,none,P1
2640,none,0.031359856,mp-777612,Li3Mn4(BO3)4,none,P1
2641,fcc,0.031400161,mp-1178023,Li2CrNiO4,0.044,P2/m
2642,none,0.031435747,mp-504376,Li6Co5(P2O7)4,none,P-1
2643,hcp,0.031438305,mp-779472,Li5Cu(PO4)2,0.121,P1
2644,none,0.031439772,mp-540209,Li2Cr3(P2O7)2,none,P-1
2645,none,0.031444866,mp-780137,Li3Mn4(BO3)4,none,P-1
2646,hcp,0.031448117,mp-26247,Li5Cu(PO4)2,0.121,P1
2647,none,0.031458489,mp-31779,Li3Fe2(PO4)3,none,C2/m
2648,none,0.031486998,mp-697811,Li2FeP2O7,none,P1
2649,none,0.031489072,mp-767795,LiFeP2O7,none,Pc
2650,none,0.031515543,mp-850166,Li5Mn6(BO3)6,none,P1
2651,none,0.031526553,mp-26675,LiSb(PO3)4,none,P2_1/c
2652,fcc,0.031530576,mp-853174,LiFeCoO4,0.081,Imma
2653,fcc,0.031535048,mp-1175221,Li7Mn4CoO12,0.069,P1
2654,fcc,0.031536926,mp-1175158,Li7Mn4CoO12,0.047,P-1
2655,none,0.03154959,mp-763392,LiP4WO12,none,C2/m
2656,fcc,0.031580851,mp-775328,Li2TiNi3O8,0.067,P2_12_12_1
2657,none,0.031581491,mp-1177885,Li2Si4Ni2O11,none,P-1
2658,fcc,0.031602963,mp-771605,Li2CrFeO4,0.066,I-4m2
2659,none,0.03161435,mp-31688,LiCr2(PO4)3,none,Pna2_1
2660,none,0.031623541,mp-1177238,Li5V3P8O29,none,P1
2661,none,0.031624515,mp-761603,LiV(SiO3)2,none,P-1
2662,none,0.031643231,mp-774345,Li2Mn2(PO4)3,none,P-1
2663,none,0.031657092,mp-762190,LiP4WO12,none,P2_1/c
2664,none,0.031659334,mp-1177237,Li4V3(FeO6)2,none,P2_1/c
2665,none,0.031668527,mp-1177059,Li5V3P8O29,none,Cc
2666,hcp,0.031668846,mp-762351,Li4Ti7O16,0.117,Cm
2667,none,0.031696013,mp-1228662,Ba7Li3(RuO5)4,none,C2
2668,none,0.03169912,mp-1177217,Li5V3P8O29,none,P1
2669,hcp,0.031703115,mp-766543,Li7Ti11O24,0.102,Pm
2670,none,0.031706187,mp-850168,Li5Mn6(BO3)6,none,Pm
2671,fcc,0.031714512,mp-1177788,Li2VFeO4,0.04,P2/m
2672,none,0.031725102,mp-766613,LiVP2O7,none,Cc
2673,none,0.031760239,mp-851023,Li3Mn4(BO3)4,none,P1
2674,none,0.031774353,mp-772427,Li3Fe(PO4)2,none,C2/c
2675,none,0.03178445,mp-1177064,Li5V3P8O29,none,P1
2676,fcc,0.031792043,mp-762472,Li9Co13O28,0.085,P1
2677,none,0.03179938,mp-761380,Li3V(PO4)2,none,C2/c
2678,fcc,0.03180521,mp-1175202,Li7Mn4CoO12,0.066,P1
2679,none,0.031823231,mp-853190,LiVGeO5,none,P2_1/m
2680,fcc,0.031827815,mp-1175226,Li7Mn4CoO12,0.048,P1
2681,none,0.031838678,mp-1100513,Li9Mn7O16,none,P-1
2682,none,0.031867606,mp-704186,LiFe4(PO4)3,none,Pnma
2683,none,0.031879819,mp-851280,Li3Mn4(BO3)4,none,P-1
2684,none,0.031888318,mp-765307,Li5V3P8O29,none,P1
2685,fcc,0.031896214,mp-1174378,Li4Mn3O7,0.07,C2/m
2686,fcc,0.031909294,mp-762411,LiMn3O6,0.107,C2/m
2687,none,0.031921685,mp-26531,LiCu2P3O10,none,P2_1/m
2688,none,0.031940695,mp-540518,Li4Ni3P4O15,none,Pna2_1
2689,none,0.031941196,mp-1177126,Li5V3P8O29,none,Cc
2690,none,0.031945662,mp-781610,Li3Mn4(BO3)4,none,P-1
2691,none,0.031956792,mp-540246,LiNiPO4,none,Cc
2692,fcc,0.031983553,mp-775175,LiVFeO4,0.076,Imma
2693,none,0.031988587,mp-31615,Li4Co5(P3O11)2,none,P2_1/c
2694,none,0.032006437,mp-766642,Li5V3P8O29,none,P1
2695,none,0.032012086,mp-778685,LiFe(SiO3)2,none,Cc
2696,fcc,0.032034024,mp-1037593,LiMg30FeO32,0,P4/mmm
2697,none,0.032041305,mp-777751,Li3Nb3P8O29,none,C2/c
2698,fcc,0.032044869,mp-977334,LiTi2O4,0.077,P2_1/m
2699,none,0.032053337,mp-540330,Li2V(PO3)5,none,P2_1/m
2700,fcc,0.03208043,mp-1174183,Li4Mn3CoO8,0,P-1
2701,fcc,0.03208791,mp-762580,Li5(NiO2)8,0.09,P1
2702,none,0.032105926,mp-1174205,Li4Mn3CoO8,none,P-1
2703,none,0.032106569,mp-1177042,Li5V3P8O29,none,Cc
2704,none,0.032119357,mp-773024,LiCa2Nb3O10,none,Pc
2705,none,0.032123523,mp-850178,Li5Mn6(BO3)6,none,Cm
2706,none,0.032149472,mp-32516,LiV2P3O11,none,C2
2707,fcc,0.032163017,mp-779977,Li2Co3NiO8,0.081,C2/m
2708,none,0.032178416,mp-777591,Li4Ti5Fe3O16,none,Cm
2709,fcc,0.032180523,mp-1175337,Li7Mn5O12,0.061,P-1
2710,none,0.032192699,mp-850463,Li3Mn2(P2O7)2,none,P1
2711,fcc,0.032237578,mp-1175219,Li7Mn4CoO12,0.013,P1
2712,none,0.03226176,mp-765086,Li5V3P8O29,none,P1
2713,none,0.032284253,mp-853187,LiTiMnO4,none,Imma
2714,fcc,0.03231463,mp-1175334,Li7Mn5O12,0.053,P-1
2715,none,0.032315856,mp-763583,LiVP2O7,none,P2_1/c
2716,hcp,0.032322737,mp-778743,Li5Cu(PO4)2,0.12,Pm
2717,fcc,0.032328038,mp-1174215,Li4Mn3CoO8,0,P-1
2718,none,0.032344086,mp-771516,Li4Ti3Cr5O16,none,Cm
2719,none,0.032353752,mp-849413,Li5Mn6(BO3)6,none,Cm
2720,none,0.032393312,mp-25317,Li3(CuO2)2,none,C2
2721,hcp,0.032409266,mp-28891,Li7TaO6,0.094,R3
2722,none,0.03241662,mp-765155,Li5V3P8O29,none,P1
2723,none,0.032430371,mp-849996,Li3Mn2(P2O7)2,none,P1
2724,none,0.032431873,mp-1100580,Li9Mn7O16,none,P2/m
2725,none,0.032466985,mp-849675,Li5Mn6(BO3)6,none,Cm
2726,none,0.032467914,mp-781079,Li3Mn4(BO3)4,none,P1
2727,none,0.032478843,mp-540292,LiCrPO5,none,P-1
2728,none,0.032489479,mp-777904,Li2Ti3CrO8,none,P6_3mc
2729,none,0.032515483,mp-504361,Li6Cr3P8O29,none,P1
2730,none,0.032516128,mp-26541,LiSb(PO3)4,none,C222_1
2731,fcc,0.032519765,mp-690149,Li(CoO2)8,0.104,P-1
2732,fcc,0.032520129,mp-1175161,Li7Mn4CoO12,0.046,P-1
2733,fcc,0.032526392,mp-1100494,Li9Mn7O16,0.062,C2/m
2734,fcc,0.032553601,mp-769569,Li6MgNi7O16,0.08,P-1
2735,none,0.032565508,mp-849503,Li5Mn6(BO3)6,none,Cm
2736,hcp,0.032566145,mp-1004762,LiMn4O8,0.096,Cmc2_1
2737,none,0.032568584,mp-770862,Li2Cr2O7,none,P-1
2738,none,0.032598268,mp-853178,Li5V3P8O29,none,Cc
2739,none,0.03260051,mp-764045,Li3Mn(PO4)2,none,P1
2740,fcc,0.032601492,mp-1174646,Li5Mn3O8,0.045,P2/m
2741,none,0.032610519,mp-849498,Li5Mn6(BO3)6,none,Cm
2742,none,0.03261406,mp-1177662,Li3Mn2(P2O7)2,none,Pc
2743,none,0.032628922,mp-861137,LiNi4(PO4)3,none,C2/c
2744,fcc,0.032639898,mp-762612,Li4Mn(Ni2O5)2,0.078,P-1
2745,none,0.032645204,mp-1177093,Li5V3P8O29,none,P1
2746,fcc,0.032645837,mp-850954,Li21(CoO4)4,0.081,Pc
2747,none,0.032649713,mp-31828,Li3Fe3(PO4)4,none,C2/c
2748,fcc,0.032677567,mp-1222636,Li3Co2RuO6,0,C2/m
2749,hcp,0.032679063,mp-772939,Li5Cu(PO4)2,0.12,P1
2750,none,0.03268141,mp-1177091,Li5V3P8O29,none,P1
2751,fcc,0.032754642,mp-775492,Li2MnV3O8,0.07,P2_12_12_1
2752,hcp,0.032757187,mp-770660,Li12CrGa11O24,0.042,P1
2753,none,0.032763494,mp-764138,Li3Fe(PO4)2,none,Pc
2754,none,0.032774472,mp-540153,LiNi(PO3)4,none,C2/c
2755,none,0.032777407,mp-1177058,Li5V3P8O29,none,P1
2756,hcp,0.032790439,mp-850949,LiMnSiO4,0.122,P2_1
2757,fcc,0.032791767,mp-1176679,LiFeSnO4,0,P4_322
2758,none,0.032803975,mp-764539,Li3Fe4(BO3)4,none,P1
2759,none,0.032807325,mp-569027,LiMoAsO6,none,Pna2_1
2760,none,0.032815265,mp-32465,LiV(PO4)2,none,P2_1/c
2761,none,0.032817042,mp-769446,Li11Fe12(BO3)12,none,P1
2762,none,0.032828284,mp-762036,Li(CoO2)2,none,Pbcn
2763,fcc,0.032828714,mp-1175316,Li7Mn5O12,0.048,P-1
2764,hcp,0.032858326,mp-849393,Li8Fe7(PO4)8,0.126,Pmn2_1
2765,none,0.032870281,mp-32024,Li3Mn2(PO4)3,none,Cc
2766,none,0.032870387,mp-1101539,Li2Mo(PO4)2,none,P2_1
2767,fcc,0.032874236,mp-997535,Li9Mg(Ni6O13)2,0.083,P1
2768,fcc,0.032889523,mp-763710,Li3Mn4O8,0.076,C2/m
2769,none,0.032933301,mp-1177076,Li5V3P8O29,none,P1
2770,none,0.032951456,mp-764653,Li3Fe4(BO3)4,none,P1
2771,none,0.032960494,mp-850437,Li5Mn6(BO3)6,none,Cm
2772,none,0.032960534,mp-781619,Li3Mn4(BO3)4,none,P1
2773,none,0.032975426,mp-779179,Li5Mn6(BO3)6,none,Cm
2774,fcc,0.032980823,mp-762507,Li2CrNiO4,0,Imma
2775,none,0.032990573,mp-1101550,Li2Cr(PO3)5,none,P2_1/m
2776,none,0.032992789,mp-778789,Li4V(BO3)2,none,Pnnm
2777,none,0.033019587,mp-559689,LiAlSiO4,none,Pna2_1
2778,none,0.033062748,mp-540392,LiCrPO4,none,P-1
2779,none,0.033063907,mp-1177621,Li3V24O58,none,P1
2780,none,0.033064542,mp-1177056,Li5V3P8O29,none,P1
2781,none,0.033065384,mp-849508,Li5Mn6(BO3)6,none,Pm
2782,fcc,0.033070688,mp-1174519,Li5Mn3O8,0,C2/m
2783,fcc,0.033084194,mp-1177654,Li3MgTi8O16,0.058,R3m
2784,none,0.033089762,mp-764701,Li8Mn5O10,none,P1
2785,none,0.033095163,mp-1177131,Li5V3P8O29,none,Cc
2786,fcc,0.033104126,mp-762692,Li5Fe11O16,0,P1
2787,none,0.033105705,mp-776889,LiMn2(PO4)3,none,P2_1/c
2788,none,0.033115168,mp-25248,Li4(CuO2)3,none,C2/m
2789,none,0.033151305,mp-767244,LiCoP2O7,none,P-1
2790,none,0.033151437,mp-849259,Li3Mn4(BO3)4,none,P1