,e_above_hull,elements,material_id,nelements,pretty_formula,spacegroup.symbol
1831,0.020051174,"['C', 'Li', 'Ni', 'O']",mp-763873,4,Li2Ni(CO3)2,P2_1/c
1832,0.02009784,"['Li', 'O', 'P', 'V']",mp-773963,4,Li6V3P8O29,P1
1833,0.020110356,"['Li', 'O', 'P', 'Sn']",mp-758115,4,Li2SnP2O7,P2_1/c
1834,0.020126462,"['Li', 'O', 'V']",mp-19373,3,LiVO3,C2/c
1835,0.020143365,"['Li', 'Mn', 'Ni', 'O']",mp-774245,4,Li5Mn5(NiO6)2,C2
1836,0.020149629,"['Cr', 'H', 'Li', 'O']",mp-541476,4,Li2Cr(H2O3)2,P2_12_12_1
1837,0.020150035,"['Cr', 'Li', 'O', 'Ti']",mp-1177849,4,Li2TiCr3O8,R-3m
1838,0.020170138,"['B', 'Li', 'Mn', 'O']",mp-779356,4,Li7Mn8(BO3)8,P1
1839,0.020187693,"['Li', 'Mn', 'O', 'P']",mp-777030,4,Li6Mn3P8O29,P1
1840,0.020191804,"['Li', 'Mg', 'O', 'Y']",mp-1037661,4,LiYMg30O32,P4/mmm
1841,0.020192645,"['Fe', 'Li', 'O', 'Si']",mp-762557,4,Li2FeSiO4,Pna2_1
1842,0.020209138,"['Al', 'Li', 'Ni', 'O']",mp-1222534,4,Li4AlNi3O8,R-3m
1843,0.020212741,"['Cr', 'Cu', 'Li', 'O']",mp-1178040,4,Li2Cr3(CuO6)2,Pbcn
1844,0.020222343,"['Li', 'O', 'P', 'W']",mp-773952,4,LiP5WO15,P2_1/c
1845,0.020280673,"['B', 'Li', 'Mn', 'O']",mp-779313,4,Li7Mn8(BO3)8,P1
1846,0.020286555,"['Li', 'Mn', 'O']",mp-1173947,3,Li3Mn2O5,P-1
1847,0.02028668,"['Li', 'O', 'P', 'V']",mp-1176906,4,Li6V3P8O29,Cc
1848,0.020288471,"['Li', 'Mn', 'O', 'P']",mp-762616,4,Li2Mn2(PO4)3,P-1
1849,0.020300401,"['Al', 'Fe', 'Li', 'O']",mp-770727,4,Li3Al2FeO6,C2/m
1850,0.020302389,"['Cr', 'Li', 'O']",mp-769767,3,Li2CrO4,Pmn2_1
1851,0.020311413,"['Li', 'Nb', 'O']",mp-1078377,3,LiNbO3,R-3
1852,0.020318077,"['Cr', 'Li', 'O', 'Ti']",mp-777927,4,Li24TiCr11O36,C2
1853,0.020336458,"['Fe', 'Li', 'O', 'P']",mp-1177121,4,Li7Fe4(PO4)6,P1
1854,0.020346031,"['Li', 'Cu', 'O']",mp-996987,3,LiCuO2,Pnnm
1855,0.020391433,"['Li', 'O', 'P', 'V']",mp-777185,4,Li4V2(PO4)3,P-1
1856,0.020395109,"['B', 'Li', 'Mn', 'O']",mp-780308,4,Li5Mn6(BO3)6,P1
1857,0.020411516,"['Li', 'Mn', 'O', 'Ti']",mp-764051,4,Li5Ti2Mn3O10,P1
1858,0.020435704,"['Li', 'O', 'P', 'V']",mp-540028,4,LiVP2O7,P2_1/c
1859,0.020471694,"['Al', 'Li', 'O', 'Si']",mp-558713,4,LiAlSiO4,P6_222
1860,0.020488078,"['Li', 'Mg', 'Mn', 'O']",mp-1036089,4,LiMg14MnO16,P4/mmm
1861,0.020536783,"['Li', 'Mn', 'O', 'P']",mp-762619,4,Li4Mn3(PO4)4,P1
1862,0.020564015,"['Li', 'Fe', 'Ni', 'O']",mp-765813,4,Li2FeNiO4,I-4m2
1863,0.020589907,"['Li', 'Mn', 'O']",mp-1173952,3,Li3Mn2O5,C2/m
1864,0.020601144,"['Li', 'Mn', 'O']",mp-769440,3,Li7Mn8O20,C2/m
1865,0.020607717,"['Li', 'Mn', 'O', 'V']",mp-775642,4,Li3Mn2V3O12,P2_1/c
1866,0.020651574,"['B', 'Fe', 'Li', 'O']",mp-769681,4,Li4Fe(BO3)2,Pnnm
1867,0.020664403,"['Li', 'Mn', 'O', 'P']",mp-771633,4,Li3Mn(PO4)2,P2_1/m
1868,0.020675884,"['Li', 'Ni', 'O']",mp-762677,3,Li8(NiO2)11,P1
1869,0.020700945,"['Li', 'Mn', 'O']",mp-1175313,3,Li7Mn5O12,P-1
1870,0.02070703,"['Li', 'O', 'P', 'V']",mp-773609,4,Li6V3P8O29,P1
1871,0.020714249,"['Cr', 'Li', 'O', 'P']",mp-853221,4,Li2Cr2(PO4)3,P-1
1872,0.020728777,"['Cu', 'Li', 'Mn', 'O']",mp-774011,4,Li7Mn12Cu5O32,R3
1873,0.020730628,"['Li', 'O', 'P', 'V']",mp-773934,4,Li6V3P8O29,P1
1874,0.020749877,"['Li', 'Ni', 'O', 'P']",mp-694722,4,Li2NiP2O7,P-1
1875,0.02079112,"['Li', 'O', 'P', 'V']",mp-1176903,4,Li6V3P8O29,C2
1876,0.020810608,"['Li', 'O', 'P', 'V']",mp-1176930,4,Li6V3P8O29,P1
1877,0.020812501,"['Fe', 'Li', 'Ni', 'O']",mp-762882,4,Li8FeNi9O20,P-1
1878,0.020828402,"['Cr', 'Li', 'O', 'V']",mp-771655,4,Li3V2CrO6,C2/m
1879,0.020831406,"['Cr', 'Li', 'O', 'Ti']",mp-1178068,4,Li24TiCr11O36,C2
1880,0.020835517,"['Co', 'Li', 'Mg', 'O']",mp-1037085,4,LiMg30CoO32,P4/mmm
1881,0.02087141,"['Li', 'O', 'P', 'V']",mp-1176904,4,Li6V3P8O29,C2
1882,0.020905147,"['Li', 'Mg', 'O', 'Y']",mp-1037656,4,LiYMg30O32,P4/mmm
1883,0.020915838,"['Li', 'O', 'P', 'V']",mp-1176922,4,Li6V3P8O29,P1
1884,0.020927201,"['Li', 'Mn', 'O']",mp-1174285,3,Li4Mn3O7,P-1
1885,0.02094212,"['Cr', 'Li', 'Mn', 'O']",mp-770985,4,Li24MnCr11O36,P1
1886,0.020946782,"['Fe', 'Li', 'O', 'P']",mp-767222,4,LiFe2(PO4)2,Cm
1887,0.020965191,"['Cr', 'Li', 'O']",mp-770688,3,Li4CrO5,C2/c
1888,0.020989299,"['Li', 'Co', 'O']",mp-775097,3,Li2CoO2,P-3m1
1889,0.020994303,"['Cr', 'Li', 'O', 'W']",mp-1178047,4,Li2Cr3WO8,R-3m
1890,0.021015943,"['Li', 'O', 'P', 'V']",mp-765369,4,Li7V3P8O29,C2/c
1891,0.021016099,"['Cr', 'Cu', 'Li', 'O']",mp-997512,4,Li3Cr2CuO6,C2/m
1892,0.021016851,"['Cr', 'Li', 'O', 'P']",mp-1101602,4,LiCr2(PO4)3,P2/c
1893,0.021029418,"['Cr', 'Li', 'O']",mp-1176802,3,LiCr2O4,P4_322
1894,0.021109315,"['Cr', 'Li', 'O', 'Ti']",mp-780842,4,Li24TiCr11O36,C2
1895,0.021130617,"['Al', 'As', 'Li', 'O']",mp-547017,4,LiAlAs2O7,C2
1896,0.021150052,"['C', 'Fe', 'Li', 'O']",mp-765114,4,Li2Fe(CO3)2,P2_1/c
1897,0.021156795,"['Li', 'O', 'Ti']",mp-758044,3,Li5Ti8O16,P1
1898,0.021166036,"['Li', 'O', 'P', 'V']",mp-1177035,4,Li6V3P8O29,Cc
1899,0.021170752,"['Li', 'O', 'P', 'V']",mp-761543,4,Li7V3P8O29,Cc
1900,0.021175602,"['Li', 'Mn', 'O', 'P']",mp-863896,4,Li3Mn(PO4)2,P2_1/c
1901,0.021186314,"['Li', 'Mn', 'Ni', 'O']",mp-772251,4,Li3Mn4NiO8,C2/m
1902,0.021195841,"['Co', 'Li', 'Mn', 'O']",mp-1178003,4,Li2MnCo3O8,P4_332
1903,0.021227446,"['Li', 'Ti', 'O']",mp-25417,3,LiTiO2,R-3m
1904,0.021248417,"['Co', 'Fe', 'Li', 'O']",mp-1177006,4,Li8Fe9CoO20,P2/m
1905,0.021271031,"['Li', 'Mn', 'O', 'P']",mp-778319,4,LiMnP2O7,P2_1/c
1906,0.021274826,"['Li', 'Ni', 'O', 'Ti']",mp-775448,4,Li2Ti3NiO8,P2_13
1907,0.021300273,"['Li', 'Na', 'O', 'V']",mp-1101663,4,NaLi15V16O48,C2
1908,0.021306516,"['Li', 'La', 'H', 'O']",mp-24148,4,LiLa2HO3,Immm
1909,0.02131504,"['Li', 'O', 'P', 'Ti']",mp-26113,4,LiTi(PO3)4,Pbcn
1910,0.021330886,"['Cr', 'Li', 'Ni', 'O']",mp-771842,4,Li3Cr2NiO6,C2/m
1911,0.021367086,"['Li', 'Mn', 'O', 'P']",mp-695780,4,Li2MnP2O7,P-1
1912,0.021374324,"['Fe', 'Li', 'O', 'P']",mp-632692,4,LiFe4(PO4)4,P1
1913,0.021376949,"['Li', 'O', 'P', 'Sn']",mp-672976,4,LiSn(PO3)3,P-1
1914,0.021393653,"['Co', 'Li', 'O', 'V']",mp-780748,4,LiVCoO4,Pnma
1915,0.021394649,"['Li', 'Mn', 'O', 'P']",mp-540242,4,LiMnP2O7,P-1
1916,0.021399697,"['Li', 'O', 'P', 'V']",mp-1177071,4,Li6V3P8O29,Cc
1917,0.021404571,"['Li', 'Mn', 'O']",mp-1100555,3,Li9Mn7O16,P-1
1918,0.021422355,"['Li', 'Mn', 'O']",mp-1100523,3,Li9Mn7O16,P-1
1919,0.021432165,"['Li', 'Ni', 'O']",mp-762915,3,Li2(NiO2)3,P-1
1920,0.021443558,"['Li', 'Ni', 'O']",mp-705828,3,Li23Ni17O40,P-1
1921,0.021445601,"['Li', 'O', 'P', 'V']",mp-1176935,4,Li6V3P8O29,P1
1922,0.021457123,"['Li', 'Mn', 'O']",mp-1174312,3,Li4Mn3O7,P-1
1923,0.021457913,"['Li', 'O', 'P', 'V']",mp-1176823,4,Li8V3P8O29,Cc
1924,0.021504468,"['Co', 'Li', 'O', 'P']",mp-585308,4,Li3Co2(PO4)3,P2_1/c
1925,0.021544673,"['Li', 'O', 'P', 'V']",mp-773962,4,Li6V3P8O29,P1
1926,0.021548459,"['Cu', 'Li', 'O']",mp-758382,3,Li7(CuO2)6,P-1
1927,0.021582992,"['B', 'Li', 'Mn', 'O']",mp-780156,4,Li5Mn6(BO3)6,P1
1928,0.021603987,"['Li', 'Mn', 'O']",mp-1174294,3,Li4Mn3O7,P-1
1929,0.021636428,"['Li', 'O', 'P', 'V']",mp-1176870,4,Li7V3P8O29,P1
1930,0.021642339,"['Li', 'O', 'P', 'V']",mp-1177106,4,Li6V3P8O29,P1
1931,0.02164338,"['Li', 'Mn', 'O', 'P']",mp-1101551,4,Li3Mn3(PO4)4,C2/c
1932,0.021667695,"['Li', 'O', 'P', 'Sb']",mp-26281,4,Li3Sb5(PO4)6,P1
1933,0.021674839,"['Cu', 'Li', 'Ni', 'O']",mp-772597,4,Li2CuNiO4,C2/c
1934,0.021689091,"['Li', 'Mn', 'O', 'P']",mp-540223,4,Li2MnP2O7,P2_1/c
1935,0.021724702,"['Li', 'O', 'P', 'V']",mp-1176577,4,LiV(PO3)4,C2/c
1936,0.021728737,"['Li', 'O', 'Ti']",mp-1222545,3,Li3Ti8O16,P-4m2
1937,0.021752852,"['Eu', 'Li', 'Mo', 'O']",mp-1212253,4,LiEu(MoO4)2,P2/c
1938,0.021761729,"['Li', 'O', 'P', 'V']",mp-1176927,4,Li6V3P8O29,P1
1939,0.021762714,"['Li', 'O', 'P', 'V']",mp-765212,4,Li6V3P8O29,P1
1940,0.021762928,"['Li', 'Mn', 'O']",mp-1100519,3,Li9Mn7O16,P-1
1941,0.021769649,"['Li', 'O', 'Ta']",mp-863362,3,LiTa3O8,Pmn2_1
1942,0.021773354,"['Li', 'Na', 'Ni', 'O']",mp-773956,4,Na2Li(NiO2)3,C2/m
1943,0.021777476,"['Li', 'Mg', 'O', 'Ti']",mp-767086,4,Li5MgTi12O24,P3m1
1944,0.021779825,"['Li', 'Mo', 'O', 'P']",mp-540269,4,LiMoP2O7,P-1
1945,0.021799694,"['Fe', 'Li', 'O', 'Si']",mp-764348,4,LiFeSiO4,P2_1/c
1946,0.021806466,"['Ga', 'Li', 'O', 'W']",mp-19695,4,LiGa(WO4)2,P2/c
1947,0.021813493,"['Co', 'Li', 'O', 'Ti']",mp-1177906,4,Li2Ti3CoO8,P4_332
1948,0.021823912,"['Li', 'O', 'P', 'V']",mp-1176905,4,Li6V3P8O29,C2
1949,0.021835127,"['Li', 'Mn', 'O', 'P']",mp-771870,4,LiMn2(PO4)2,P-1
1950,0.0218513,"['Li', 'Mn', 'Ni', 'O']",mp-765722,4,Li4Mn3NiO8,C2/m
1951,0.021861402,"['Li', 'O', 'P', 'V']",mp-773693,4,Li6V3P8O29,P1
1952,0.021900608,"['Li', 'Mn', 'O', 'P']",mp-849355,4,LiMnP2O7,P1
1953,0.02191265,"['Li', 'O', 'P', 'V']",mp-1177111,4,Li6V3P8O29,P1
1954,0.021924274,"['Li', 'O', 'P', 'V']",mp-32476,4,LiVP2O7,P2_1/c
1955,0.021947557,"['Cr', 'Li', 'Mn', 'O']",mp-775291,4,Li2Mn2Cr3O12,Pbcn
1956,0.021949379,"['Li', 'Mn', 'O', 'P']",mp-1176722,4,LiMn2(PO4)2,P-1
1957,0.021950341,"['Li', 'O', 'P', 'V']",mp-773379,4,Li6V3P8O29,P1
1958,0.021950834,"['As', 'Li', 'Mo', 'O']",mp-567070,4,LiMoAsO6,P2_1
1959,0.021979901,"['Fe', 'Li', 'O', 'W']",mp-775194,4,Li2Fe3WO8,Cmc2_1
1960,0.021979974,"['Li', 'Mn', 'O']",mp-765516,3,Li8Mn9O18,P1
1961,0.021994637,"['Li', 'O', 'Ti', 'V']",mp-778325,4,Li2TiV3O8,Cc
1962,0.021995323,"['Cr', 'Li', 'O', 'P']",mp-697850,4,Li2Cr(PO3)4,P2_1/c
1963,0.022000932,"['Cu', 'Li', 'Mn', 'O']",mp-773500,4,LiMnCuO4,Imma
1964,0.022001405,"['Fe', 'Li', 'O', 'P']",mp-695805,4,Li2FeP2O7,P-1
1965,0.02200311,"['Li', 'O', 'Sb', 'Zn']",mp-557328,4,Li3Zn2SbO6,C2/m
1966,0.02201767,"['Fe', 'Li', 'O', 'Ti']",mp-771453,4,Li5Ti2Fe5O12,C2
1967,0.022029813,"['Li', 'Na', 'O', 'V']",mp-1220781,4,NaLi3V4O12,C2
1968,0.022031609,"['Cu', 'Li', 'Nd', 'O']",mp-756531,4,LiNd6(CuO6)2,C2/m
1969,0.022034211,"['Li', 'Ag', 'O']",mp-996992,3,LiAgO2,C2/m
1970,0.022034968,"['Li', 'Mn', 'O', 'P']",mp-704284,4,Li6Mn3P8O29,P1
1971,0.022047079,"['Li', 'O', 'P', 'V']",mp-761508,4,Li6V3P8O29,P1
1972,0.022047364,"['Fe', 'Li', 'O', 'Si']",mp-761394,4,Li4Fe2Si3O10,C2/c
1973,0.022052716,"['Li', 'O', 'P', 'V']",mp-765175,4,Li6V3P8O29,P1
1974,0.022069995,"['Cu', 'Li', 'O']",mp-760590,3,Li5(CuO2)3,P1
1975,0.022088085,"['Li', 'Ni', 'O', 'P']",mp-762168,4,LiNiPO4,Pnma
1976,0.022101834,"['Li', 'Ni', 'O']",mp-771991,3,Li6NiO4,Pmmn
1977,0.022107233,"['H', 'Li', 'O', 'V']",mp-1204473,4,Li3V5(H8O11)2,Pnnm
1978,0.022107498,"['Li', 'O', 'P', 'V']",mp-773684,4,Li6V3P8O29,Cc
1979,0.022115774,"['Co', 'Li', 'O', 'Sb']",mp-1177495,4,Li4Co3SbO8,C2/m
1980,0.022136219,"['Co', 'Li', 'O', 'V']",mp-765432,4,Li2V3CoO8,R3m
1981,0.022138538,"['Cr', 'Li', 'O', 'V']",mp-777002,4,Li4V5Cr3O16,Cm
1982,0.022145042,"['B', 'Fe', 'Li', 'O']",mp-764896,4,Li7Fe8(BO3)8,P1
1983,0.022155836,"['Li', 'O', 'P', 'V']",mp-773384,4,Li6V3P8O29,Cc
1984,0.022165194,"['Li', 'O', 'V']",mp-861577,3,Li2VO3,C2/m
1985,0.022174838,"['Li', 'O', 'P', 'V']",mp-705056,4,LiVP2O7,P1
1986,0.02225259,"['Li', 'O', 'Ti', 'V']",mp-774230,4,Li4Ti5V3O16,Cm
1987,0.02225949,"['Li', 'O', 'P', 'V']",mp-772452,4,Li6V3P8O29,P1
1988,0.022259936,"['Li', 'Mn', 'O']",mp-1174308,3,Li4Mn3O7,P-1
1989,0.02228164,"['Cr', 'Li', 'O', 'P']",mp-540200,4,LiCr(PO3)4,C2/c
1990,0.022284224,"['Cr', 'Li', 'O', 'P']",mp-1012789,4,LiCr3P3O13,P2_1/m
1991,0.022287406,"['Li', 'Mo', 'O']",mp-698666,3,Li2MoO3,P1
1992,0.022302192,"['Fe', 'Li', 'O', 'P']",mp-1178015,4,Li2Fe2(PO4)3,P1
1993,0.022307778,"['C', 'Li', 'O', 'V']",mp-765387,4,LiV(CO3)2,P2_1/c
1994,0.022308131,"['Li', 'Mn', 'O']",mp-1175308,3,Li7Mn5O12,P-1
1995,0.022328085,"['Fe', 'Li', 'Ni', 'O']",mp-776112,4,Li2Fe3NiO8,P4_332
1996,0.022329297,"['Cu', 'Li', 'O', 'P']",mp-26267,4,Li2Cu(PO3)4,Pnma
1997,0.022341249,"['Li', 'Ni', 'O', 'Si']",mp-767687,4,Li4Si2NiO7,Cc
1998,0.022349036,"['Li', 'O', 'P', 'V']",mp-1176928,4,Li6V3P8O29,P1
1999,0.022356684,"['Fe', 'Li', 'O', 'P']",mp-31806,4,LiFe3(P3O10)2,C222_1
2000,0.022361998,"['Li', 'Ni', 'O', 'Si']",mp-767896,4,Li2SiNiO4,Pnma
2001,0.022364238,"['B', 'Li', 'Mn', 'O']",mp-782643,4,Li5Mn6(BO3)6,P1
2002,0.022367595,"['Li', 'Mn', 'O']",mp-1100562,3,Li9Mn7O16,P-1
2003,0.022377306,"['Li', 'O', 'P', 'V']",mp-1176917,4,Li6V3P8O29,P1
2004,0.022379232,"['Li', 'Mn', 'O', 'Sn']",mp-1177993,4,Li2Mn3SnO8,P2_12_12_1
2005,0.022387192,"['Li', 'O', 'P', 'V']",mp-761529,4,Li6V3P8O29,Cc
2006,0.022392965,"['Li', 'O', 'Ti']",mp-531914,3,Li3Ti8O16,Pmmn
2007,0.022403977,"['Co', 'Li', 'Mn', 'O']",mp-1174190,4,Li4Mn3CoO8,P-1
2008,0.022412446,"['Li', 'O', 'V']",mp-771608,3,Li3V6O16,Pm
2009,0.022422272,"['Li', 'Ni', 'O', 'P']",mp-765799,4,LiNi4(PO4)3,Cmc2_1
2010,0.022426522,"['Al', 'Li', 'O', 'Si']",mp-558808,4,LiAl(SiO3)2,P1
2011,0.022431163,"['Li', 'O', 'P', 'V']",mp-773783,4,Li6V3P8O29,P1
2012,0.022469865,"['Li', 'O', 'P', 'V']",mp-1176853,4,Li7V3P8O29,P1
2013,0.022479724,"['In', 'Li', 'Mo', 'O']",mp-25088,4,LiIn(MoO4)2,C2/c
2014,0.022494805,"['Li', 'Mn', 'O']",mp-1175363,3,Li7Mn5O12,P2/m
2015,0.022497212,"['Cu', 'Li', 'Mn', 'O']",mp-775165,4,Li2Mn3CuO8,P2_12_12_1
2016,0.022520845,"['Li', 'O', 'Ta']",mp-851102,3,LiTa3O8,Pm
2017,0.02252781,"['Co', 'Li', 'Ni', 'O']",mp-780678,4,Li4Co2Ni3O10,P2/m
2018,0.022531644,"['Li', 'O', 'P', 'V']",mp-1176919,4,Li6V3P8O29,P1
2019,0.022539669,"['Li', 'O', 'P', 'V']",mp-761757,4,Li8V3P8O29,P-1
2020,0.022541619,"['Li', 'Mn', 'O']",mp-771583,3,LiMn2O4,P6_3mc
2021,0.022550334,"['Al', 'Li', 'O', 'Si']",mp-556544,4,LiAlSiO4,Pc
2022,0.022558308,"['Li', 'O', 'Ti']",mp-756645,3,Li5Ti3O8,R-3m
2023,0.022577031,"['Li', 'O', 'W']",mp-1222776,3,Li3(WO3)8,Pmmm
2024,0.022586328,"['Co', 'Li', 'O']",mp-1177487,3,Li47(CoO4)8,P1
2025,0.02259519,"['Li', 'Mo', 'O', 'P']",mp-540212,4,Li3Mo(PO3)8,C2
2026,0.022606195,"['Li', 'Mn', 'O']",mp-1100517,3,Li9Mn7O16,P-1
2027,0.022610989,"['Li', 'Mn', 'O', 'P']",mp-771259,4,LiMn2(PO4)2,P2/c
2028,0.02262187,"['Co', 'Li', 'O', 'P']",mp-31519,4,LiCoP2O7,C2
2029,0.022629664,"['Co', 'Li', 'O', 'P']",mp-1176783,4,LiCo2(PO4)2,Pca2_1
2030,0.022639432,"['Li', 'Nd', 'H', 'O']",mp-24150,4,LiNd2HO3,Immm
2031,0.022649063,"['Eu', 'Li', 'O', 'Sm']",mp-1201372,4,LiSmEu2O4,Pnma
2032,0.022666785,"['Li', 'O', 'Sb']",mp-27453,3,Li7SbO6,R3
2033,0.022700064,"['Li', 'O', 'P', 'V']",mp-774270,4,Li6V3P8O29,P1
2034,0.022753985,"['Li', 'O', 'P', 'V']",mp-763866,4,Li6V3P8O29,P1
2035,0.022772354,"['Co', 'Li', 'Ni', 'O']",mp-850772,4,Li8CoNi9O20,Pm
2036,0.022783441,"['Li', 'Mn', 'O']",mp-1100522,3,Li9Mn7O16,P-1
2037,0.02280423,"['Li', 'O', 'P', 'V']",mp-1176865,4,Li7V3P8O29,P1
2038,0.02280848,"['Li', 'Mn', 'O', 'P']",mp-31940,4,LiMnPO4,P31c
2039,0.022808772,"['Li', 'O', 'P', 'V']",mp-1176944,4,Li6V3P8O29,P1
2040,0.022820506,"['Cr', 'Li', 'O', 'P']",mp-540179,4,Li2Cr3(P2O7)2,P2_1/c
2041,0.022826338,"['Co', 'Li', 'O', 'P']",mp-774352,4,Li3Co2(PO4)3,P2_1/c
2042,0.022832948,"['Li', 'Ni', 'O', 'P']",mp-861623,4,LiNi4(PO4)3,Cc
2043,0.022851715,"['Li', 'Mg', 'O', 'W']",mp-1040082,4,LiMg30WO32,P4/mmm
2044,0.022854125,"['Co', 'Li', 'O', 'P']",mp-767947,4,LiCo2(PO4)2,Pca2_1
2045,0.022866704,"['Li', 'Mn', 'O', 'P']",mp-32027,4,Li2Mn3(P2O7)2,P-1
2046,0.022868186,"['Li', 'Mn', 'O']",mp-1100552,3,Li9Mn7O16,P-1
2047,0.022881484,"['Li', 'Mn', 'O', 'Sn']",mp-775647,4,Li2Mn3SnO8,P4_32_12
2048,0.022896791,"['Li', 'Mn', 'O', 'P']",mp-1101573,4,LiMn4P7O24,P-1
2049,0.022914158,"['Li', 'Mo', 'Nd', 'O']",mp-1222327,4,LiNd(MoO4)2,I-4
2050,0.022933339,"['Li', 'O', 'P', 'V']",mp-1177100,4,Li6V3P8O29,P1
2051,0.022946795,"['C', 'Co', 'Li', 'O']",mp-767175,4,Li2Co(CO3)2,Fdd2
2052,0.022969024,"['Li', 'O', 'P', 'V']",mp-1176915,4,Li6V3P8O29,P1
2053,0.022971318,"['Fe', 'Li', 'Ni', 'O']",mp-762778,4,Li3FeNi3O8,C2/m
2054,0.022974447,"['Li', 'Ni', 'O', 'Ti']",mp-771100,4,Li3Ti(NiO2)4,C2/m
2055,0.02297673,"['Li', 'O', 'P', 'V']",mp-1176925,4,Li6V3P8O29,P1
2056,0.022982679,"['Cr', 'Li', 'O', 'P']",mp-1101527,4,LiCr4P7O24,P-1
2057,0.022988491,"['Li', 'Mn', 'Ni', 'O']",mp-771196,4,Li8Mn12Ni4O31,P1
2058,0.022996064,"['Li', 'O', 'P', 'V']",mp-761500,4,Li6V3P8O29,P1
2059,0.023005931,"['Fe', 'Li', 'O', 'P']",mp-761486,4,LiFePO4,I-4
2060,0.023015615,"['Li', 'Mn', 'O']",mp-1175349,3,Li7Mn5O12,P-1
2061,0.023023996,"['Li', 'O', 'P', 'V']",mp-774273,4,Li6V3P8O29,P1
2062,0.023027632,"['Li', 'O', 'P', 'V']",mp-1176856,4,Li7V3P8O29,P1
2063,0.023030973,"['Li', 'O', 'P', 'V']",mp-773579,4,Li6V3P8O29,P1
2064,0.023057144,"['Li', 'O', 'P', 'V']",mp-761499,4,Li6V3P8O29,P1
2065,0.023063213,"['Li', 'O', 'P', 'V']",mp-1176929,4,Li6V3P8O29,P1
2066,0.023073157,"['Co', 'Li', 'O', 'P']",mp-31581,4,LiCo(PO3)4,C2/c
2067,0.023086127,"['Fe', 'Li', 'Ni', 'O']",mp-762855,4,Li8Fe3Ni7O20,P2/m
2068,0.023107811,"['Cr', 'Li', 'O', 'P']",mp-761392,4,LiCrPO4,Pnma
2069,0.023146022,"['Al', 'Fe', 'Li', 'O']",mp-770411,4,Li2AlFeO4,C222_1
2070,0.023156366,"['Li', 'O', 'P', 'V']",mp-1176916,4,Li6V3P8O29,P1
2071,0.023156828,"['Cr', 'Li', 'O', 'P']",mp-31664,4,LiCrPO4,Cmcm
2072,0.023160939,"['Li', 'O', 'P', 'W']",mp-763520,4,LiPWO5,P-1
2073,0.023176096,"['Li', 'Mn', 'O']",mp-1100520,3,Li9Mn7O16,P-1
2074,0.023190495,"['Li', 'Mn', 'O']",mp-1174287,3,Li4Mn3O7,P-1
2075,0.023248119,"['Li', 'O', 'P', 'V']",mp-1176900,4,Li6V3P8O29,P3
2076,0.0232577,"['Cu', 'Li', 'O', 'P']",mp-772084,4,Li5Cu6(P2O7)4,P-1
2077,0.023299002,"['Cu', 'Li', 'Mn', 'O']",mp-769514,4,Li9Mn12Cu3O32,R3
2078,0.023299815,"['Li', 'Mn', 'O', 'P']",mp-31950,4,LiMn(PO3)4,Cc
2079,0.02330633,"['Li', 'O', 'P', 'V']",mp-761507,4,Li6V3P8O29,P1
2080,0.023320483,"['Li', 'Nd', 'O', 'Ti']",mp-10520,4,LiNdTiO4,P4/nmm
2081,0.023333297,"['Li', 'O', 'P', 'V']",mp-772469,4,Li6V3P8O29,P1
2082,0.023343519,"['Li', 'O', 'P', 'V']",mp-1176932,4,Li6V3P8O29,P1
2083,0.023423383,"['Co', 'Li', 'O', 'Si']",mp-763462,4,Li2Co3(SiO4)2,P1
2084,0.023481228,"['Co', 'Cr', 'Li', 'O']",mp-1176808,4,Li9Cr12Co7O48,P1
2085,0.0235086,"['Li', 'O', 'P', 'V']",mp-1176998,4,Li6V3P8O29,C2
2086,0.023517064,"['Li', 'Mo', 'O', 'P']",mp-697767,4,LiMoP2O7,P2_1/c
2087,0.023533409,"['Li', 'O', 'P', 'V']",mp-773329,4,Li6V3P8O29,P1
2088,0.023539802,"['Li', 'O', 'P', 'V']",mp-1177009,4,Li6V3P8O29,P1
2089,0.023552592,"['Li', 'O', 'P', 'V']",mp-761498,4,Li6V3P8O29,P1
2090,0.023556974,"['Li', 'Mn', 'O']",mp-1100558,3,Li9Mn7O16,P-1
2091,0.023559105,"['Fe', 'Li', 'O', 'P']",mp-705329,4,Li3Fe2(PO4)3,Cc
2092,0.023561061,"['Cu', 'Li', 'O', 'Sb']",mp-767395,4,Li3CuSbO5,P1
2093,0.023579813,"['Li', 'O', 'P', 'V']",mp-705293,4,Li3V2(PO4)3,Cc
2094,0.023582875,"['Li', 'Mn', 'O', 'P']",mp-1013917,4,LiMn3P3O13,P2_1/m
2095,0.023591159,"['C', 'Li', 'Ni', 'O']",mp-763540,4,LiNi(CO3)2,P2_1
2096,0.023597926,"['Fe', 'Li', 'O', 'Sb']",mp-765615,4,Li6Fe5SbO12,C2/m
2097,0.023634028,"['Li', 'O', 'P', 'V']",mp-1176896,4,Li6V3P8O29,P3c1
2098,0.023635885,"['Li', 'O', 'P', 'V']",mp-761509,4,Li6V3P8O29,P1
2099,0.023645649,"['Li', 'Mg', 'O', 'V']",mp-771733,4,Li3MgV8O16,Cm
2100,0.023650637,"['Co', 'Li', 'Mn', 'O']",mp-775622,4,Li3MnCo3O8,R-3m
2101,0.02366057,"['Cr', 'Li', 'O', 'V']",mp-777666,4,Li2V3CrO8,Cc
2102,0.023661595,"['H', 'Li', 'O', 'P']",mp-1201206,4,Li2P(HO)6,Ia-3
2103,0.023683255,"['Li', 'Mn', 'O', 'Si']",mp-761517,4,Li4MnSi2O7,C2
2104,0.023684457,"['C', 'Fe', 'Li', 'O']",mp-1176763,4,LiFe2(CO3)3,P1
2105,0.02368996,"['Li', 'O', 'P', 'V']",mp-1176909,4,Li6V3P8O29,C2
2106,0.023696234,"['Co', 'Li', 'O']",mp-1175506,3,Li9Co7O16,P2/m
2107,0.023701795,"['Li', 'Ni', 'O']",mp-768059,3,Li7Ni9O16,P-1
2108,0.023710705,"['Fe', 'Li', 'O', 'Si']",mp-762554,4,Li2FeSiO4,P2_1/c
2109,0.023712609,"['Li', 'Mn', 'O']",mp-1174297,3,Li4Mn3O7,P-1
2110,0.023729052,"['Li', 'Mn', 'O', 'P']",mp-504250,4,LiMn4(PO4)3,Pnma
2111,0.023729678,"['Li', 'Mn', 'O', 'W']",mp-777686,4,Li9Mn3(WO4)7,R3m
2112,0.023788219,"['Li', 'Mn', 'O', 'Ti']",mp-775392,4,Li2Ti3MnO8,P4_332
2113,0.023795317,"['Li', 'O', 'P', 'V']",mp-763889,4,Li6V3P8O29,P1
2114,0.023796115,"['Co', 'Li', 'Nb', 'O']",mp-772384,4,LiNbCoO4,P4_322
2115,0.023796739,"['Co', 'Cr', 'Li', 'O']",mp-773157,4,Li9Cr12Co7O48,P1
2116,0.023811135,"['Li', 'O', 'P', 'V']",mp-1176913,4,Li6V3P8O29,Cc
2117,0.023826249,"['Li', 'O', 'P', 'V']",mp-697754,4,Li2V(PO3)4,P2_1/c
2118,0.023828031,"['Li', 'O', 'P', 'V']",mp-772461,4,Li6V3P8O29,P1
2119,0.023828676,"['Co', 'Li', 'Mn', 'O']",mp-762866,4,Li3MnCo3O8,C2/m
2120,0.023830063,"['Cr', 'Li', 'O', 'Si']",mp-762405,4,Li4Cr2Si3O10,C2/c