,e_above_hull,elements,material_id,nelements,pretty_formula,spacegroup.symbol
3863,0.045408169,"['Co', 'Fe', 'Li', 'O']",mp-763920,4,Li6Fe5CoO12,C2/m
3864,0.045426574,"['Li', 'O', 'P', 'V']",mp-1177210,4,Li4V3P8O29,P1
3865,0.045427228,"['Li', 'O', 'P', 'V']",mp-863889,4,Li3V3P8O29,P1
3866,0.045444563,"['Li', 'O', 'P', 'V']",mp-765214,4,Li4V3P8O29,P1
3867,0.045460561,"['Cr', 'Li', 'O', 'V']",mp-777000,4,Li3V4CrO8,C2/m
3868,0.045461481,"['Co', 'Li', 'Mn', 'O']",mp-1175274,4,Li7Mn4CoO12,P2
3869,0.045496401,"['Li', 'O', 'V']",mp-762292,3,Li4V5O10,P1
3870,0.045526192,"['Co', 'Li', 'O']",mp-1173996,3,Li5Co3O8,P2/m
3871,0.0455367,"['Li', 'O', 'Ti']",mp-761891,3,Li3Ti4O8,C2/m
3872,0.045554328,"['Li', 'Ni', 'O']",mp-762932,3,Li4(NiO2)5,P1
3873,0.045560655,"['Li', 'O', 'P', 'V']",mp-765044,4,Li14V9(P2O7)8,P-1
3874,0.045577788,"['Li', 'Mn', 'O']",mp-780145,3,Li11Mn6O16,P1
3875,0.045586607,"['Li', 'O', 'P', 'V']",mp-1177212,4,Li4V3P8O29,P1
3876,0.045591232,"['Li', 'O', 'P', 'V']",mp-766745,4,Li3V3P8O29,P1
3877,0.045592668,"['Co', 'Li', 'Mn', 'O']",mp-1173884,4,Li2MnCoO4,C2/m
3878,0.045595601,"['Li', 'O', 'P', 'V']",mp-764139,4,Li3V3P8O29,C2/c
3879,0.045605535,"['Li', 'Mn', 'O', 'P']",mp-540471,4,LiMn(PO3)3,P-6c2
3880,0.045623244,"['Li', 'Cu', 'O']",mp-753081,3,Li3(CuO)4,Imm2
3881,0.045641855,"['Li', 'O', 'P', 'V']",mp-765395,4,Li4V3P8O29,P1
3882,0.045647157,"['Li', 'Ni', 'O', 'Ti']",mp-773607,4,LiTiNiO4,Imma
3883,0.045663497,"['B', 'Li', 'Mn', 'O']",mp-780813,4,Li2Mn3(BO3)3,P-1
3884,0.045666186,"['Li', 'Ni', 'O', 'P']",mp-766760,4,Li2NiP2O7,P-1
3885,0.04566995,"['Li', 'Mn', 'O', 'P']",mp-540068,4,LiMnP2O7,P2_1/m
3886,0.045676406,"['Li', 'O', 'P', 'V']",mp-766673,4,Li4V3P8O29,P1
3887,0.045696573,"['Li', 'Mn', 'O', 'P']",mp-1177392,4,Li5Mn4(P2O7)4,P1
3888,0.045719031,"['Li', 'O', 'P', 'V']",mp-705314,4,Li3V3P8O29,C2/c
3889,0.045731523,"['Li', 'Nb', 'Ni', 'O']",mp-772394,4,Li2NbNi3O8,P6_3mc
3890,0.045743811,"['Fe', 'La', 'Li', 'O']",mp-767978,4,Li3La7(FeO8)2,Cm
3891,0.045750602,"['Co', 'Li', 'O']",mp-1173970,3,Li3Co2O5,C2/m
3892,0.045751982,"['Fe', 'Li', 'Ni', 'O']",mp-767955,4,Li3Fe2(NiO4)2,P-1
3893,0.04576495,"['Li', 'O', 'P', 'V']",mp-764116,4,Li3V3P8O29,P1
3894,0.045771578,"['Ga', 'Li', 'O', 'Si']",mp-6745,4,LiGa(SiO3)2,C2/c
3895,0.045778255,"['B', 'Fe', 'Li', 'O']",mp-764720,4,LiFe2(BO3)2,P1
3896,0.045789765,"['Ba', 'Li', 'O', 'Ti']",mp-762032,4,Ba4Li4Ti19O44,P1
3897,0.045794809,"['Cr', 'Li', 'O', 'Si']",mp-775302,4,Li2Cr(Si2O5)3,Cmce
3898,0.045798912,"['Li', 'Mn', 'O', 'Ti']",mp-771753,4,Li2Ti3MnO8,R-3m
3899,0.045799783,"['Li', 'Ni', 'O']",mp-1222821,3,Li(NiO2)3,C2/m
3900,0.04580119,"['Li', 'Mn', 'O']",mp-1175340,3,Li7Mn5O12,P-1
3901,0.045802372,"['Co', 'Li', 'Mn', 'O']",mp-1174243,4,Li4Mn3CoO8,C2/m
3902,0.045809361,"['B', 'Fe', 'Li', 'O']",mp-764824,4,Li5Fe8(BO3)8,P1
3903,0.045811546,"['Li', 'O', 'P', 'V']",mp-853207,4,Li4V3P8O29,P1
3904,0.045828717,"['Li', 'Mn', 'O', 'P']",mp-1101511,4,LiMn4(PO4)3,Fdd2
3905,0.045892941,"['Li', 'O', 'P', 'V']",mp-781141,4,Li3V3P8O29,P1
3906,0.045902084,"['Fe', 'Li', 'O']",mp-767292,3,Li8Fe7O15,C2/m
3907,0.045908679,"['Co', 'Li', 'O', 'Si']",mp-763396,4,Li4Co2Si3O10,C2/c
3908,0.045909518,"['Cu', 'Li', 'O', 'P']",mp-672984,4,LiCu(PO3)4,P2_12_12_1
3909,0.045921792,"['Cu', 'Li', 'O']",mp-996986,3,LiCuO2,Cmcm
3910,0.045937928,"['Co', 'Li', 'Mn', 'O']",mp-1175215,4,Li7Mn4CoO12,P1
3911,0.045938457,"['K', 'Li', 'Mn', 'O']",mp-763768,4,K8Li9Mn4O16,P1
3912,0.045949724,"['Li', 'Ni', 'O', 'P']",mp-762012,4,LiNiPO4,P-1
3913,0.045983306,"['Cr', 'Li', 'Mn', 'O']",mp-1222520,4,Li5Mn2CrO8,C2/m
3914,0.046002059,"['Fe', 'Li', 'O', 'Si']",mp-861542,4,LiFeSiO4,Pnma
3915,0.046002386,"['B', 'Li', 'O']",mp-1020025,3,LiB3O5,Pnma
3916,0.046027455,"['Li', 'O', 'P', 'V']",mp-764066,4,Li3V3P8O29,P1
3917,0.04604288,"['B', 'Li', 'O', 'Zn']",mp-756912,4,LiZnBO3,P1
3918,0.046048642,"['Fe', 'Li', 'O', 'Si']",mp-762844,4,Li4Fe2Si4O13,Pna2_1
3919,0.046057945,"['Li', 'Mn', 'O']",mp-849676,3,Li5Mn4O8,Cmc2_1
3920,0.046060331,"['B', 'Fe', 'Li', 'O']",mp-764528,4,Li5Fe8(BO3)8,P1
3921,0.046074685,"['Li', 'O', 'V']",mp-764771,3,Li6V5O12,P1
3922,0.046077614,"['Li', 'O', 'P', 'V']",mp-1177598,4,Li3V3P8O29,P1
3923,0.046086174,"['Li', 'Ni', 'O', 'P']",mp-761496,4,LiNi4(PO4)3,Pnma
3924,0.046094943,"['Li', 'O', 'P', 'V']",mp-764114,4,Li4V3P8O29,P1
3925,0.046103653,"['B', 'Fe', 'Li', 'O']",mp-774994,4,Li5Fe8(BO3)8,P1
3926,0.046106349,"['Cr', 'Li', 'O', 'P']",mp-761433,4,LiCrPO4,P6_3
3927,0.04611012,"['Li', 'O', 'P', 'V']",mp-1177229,4,Li4V3P8O29,P1
3928,0.046124208,"['Co', 'Li', 'O', 'P']",mp-777057,4,LiCoPO4,Pnma
3929,0.046124304,"['B', 'Fe', 'Li', 'O']",mp-764531,4,Li5Fe8(BO3)8,P1
3930,0.046134076,"['Li', 'Mo', 'O', 'P']",mp-704197,4,Li2Mo(PO4)2,P2_1
3931,0.046137916,"['B', 'Li', 'Mn', 'O']",mp-780910,4,Li2Mn3(BO3)3,P1
3932,0.046146233,"['Li', 'Mn', 'O', 'Ti']",mp-766150,4,Li4Ti2Mn3O10,P-1
3933,0.046170975,"['Cr', 'Li', 'O']",mp-775130,3,Li2CrO3,C2/m
3934,0.046178821,"['Li', 'O', 'P', 'V']",mp-765414,4,Li4V3P8O29,P1
3935,0.046186945,"['Li', 'Mn', 'O', 'P']",mp-1101557,4,Li2Mn(PO4)2,P2_1
3936,0.046201834,"['Cu', 'Li', 'O', 'P']",mp-26312,4,Li4Cu(PO4)2,Pc
3937,0.04621732,"['Li', 'O', 'P', 'V']",mp-1177228,4,Li4V3P8O29,P1
3938,0.046227134,"['B', 'Fe', 'Li', 'O']",mp-764880,4,Li5Fe8(BO3)8,P1
3939,0.046230787,"['Li', 'O', 'V']",mp-1198472,3,Li2V18O39,C2/m
3940,0.046235443,"['Li', 'O', 'P', 'V']",mp-1177197,4,Li4V3P8O29,P1
3941,0.046244447,"['La', 'Li', 'O', 'Ti']",mp-768320,4,LiLa5Ti8O24,Cm
3942,0.046246274,"['Li', 'O', 'P', 'V']",mp-765017,4,Li4V3P8O29,P1
3943,0.046246867,"['Li', 'O', 'Ti']",mp-759560,3,LiTi6O12,P2_1
3944,0.046248611,"['Li', 'O', 'P', 'Sb']",mp-27111,4,Li3Sb3(PO4)4,P1
3945,0.046252528,"['Li', 'O', 'P', 'V']",mp-761948,4,Li3V3P8O29,P1
3946,0.046273771,"['Li', 'Mn', 'O', 'P']",mp-767800,4,Li2Mn(PO4)2,Cc
3947,0.046274831,"['Li', 'Ni', 'O']",mp-997521,3,Li4Ni7O12,P1
3948,0.046276637,"['Li', 'O', 'P', 'V']",mp-765251,4,Li4V3P8O29,P1
3949,0.046276687,"['Li', 'O', 'P', 'V']",mp-775173,4,Li4V3P8O29,P1
3950,0.046281995,"['Co', 'Li', 'Mn', 'O']",mp-1175149,4,Li7Mn4CoO12,P-1
3951,0.046292064,"['Cu', 'La', 'Li', 'O']",mp-1222453,4,LiLa4CuO8,C2/m
3952,0.046293127,"['Co', 'Li', 'O', 'Ti']",mp-769646,4,Li2TiCo2O5,C2
3953,0.046304935,"['Li', 'Ni', 'O']",mp-762385,3,Li4(NiO2)11,P-1
3954,0.046306903,"['B', 'Fe', 'Li', 'O']",mp-764464,4,Li5Fe8(BO3)8,P1
3955,0.046321011,"['Fe', 'Li', 'Ni', 'O']",mp-762917,4,Li2Fe(NiO3)2,P-1
3956,0.046328777,"['Cu', 'Li', 'O', 'P']",mp-760683,4,Li4Cu(PO3)6,P1
3957,0.046330513,"['Li', 'Ni', 'O', 'P']",mp-32352,4,LiNi(PO3)4,Cc
3958,0.046332965,"['Li', 'O', 'W']",mp-767923,3,Li6W2O9,C2/c
3959,0.046348328,"['Li', 'O', 'P', 'Sb']",mp-26652,4,LiSb(PO3)5,P2_1/c
3960,0.046358412,"['Co', 'Li', 'O', 'P']",mp-761821,4,LiCoPO4,P-1
3961,0.046365436,"['Li', 'O', 'P', 'Sn']",mp-27093,4,Li3Sn2(PO4)3,P2_1/c
3962,0.046366296,"['Li', 'O', 'P', 'Sn']",mp-758086,4,LiSn(PO3)3,P2_12_12_1
3963,0.046372353,"['Li', 'Mg', 'O', 'Y']",mp-1035901,4,LiYMg14O16,P4/mmm
3964,0.04639062,"['Li', 'Mg', 'O', 'Y']",mp-1035918,4,LiYMg14O16,Pmmm
3965,0.046403303,"['Co', 'Fe', 'Li', 'O']",mp-762906,4,Li2Fe3CoO8,C2/m
3966,0.046408233,"['Co', 'Li', 'Mn', 'O']",mp-764942,4,Li5Mn2Co5O12,C2
3967,0.046417415,"['Li', 'O', 'P', 'V']",mp-1177183,4,Li4V3P8O29,P1
3968,0.046417789,"['Cu', 'Li', 'O', 'V']",mp-1177841,4,Li2V3CuO8,P4_32_12
3969,0.046431415,"['Li', 'O', 'P', 'V']",mp-851059,4,Li4V3P8O29,Cc
3970,0.046437861,"['Li', 'Mn', 'O']",mp-762869,3,LiMn2O4,C2/c
3971,0.046438682,"['Fe', 'Li', 'O', 'P']",mp-705404,4,Li4Fe3P4O15,Pna2_1
3972,0.046440248,"['Co', 'Li', 'Mn', 'O']",mp-1174009,4,Li5Mn2CoO8,P-1
3973,0.046443203,"['Li', 'O', 'P', 'V']",mp-765355,4,Li4V3P8O29,P1
3974,0.046447056,"['Li', 'Ag', 'O']",mp-996988,3,LiAgO2,Pmmm
3975,0.046450731,"['Cr', 'Li', 'O', 'Si']",mp-766678,4,Li3Cr(Si2O5)3,Pnma
3976,0.046481579,"['Li', 'Mn', 'O']",mp-1003313,3,Li2Mn3O6,C2/m
3977,0.046488209,"['Fe', 'Li', 'O', 'P']",mp-1177796,4,Li3Fe3(PO4)4,P-1
3978,0.046488673,"['Fe', 'Li', 'O', 'Ti']",mp-769658,4,Li2TiFeO4,Cc
3979,0.04649045,"['B', 'Fe', 'Li', 'O']",mp-764542,4,Li5Fe8(BO3)8,P1
3980,0.04649905,"['Li', 'O', 'P', 'V']",mp-1177198,4,Li4V3P8O29,P1
3981,0.046514032,"['Fe', 'Li', 'O', 'P']",mp-762558,4,Li2Fe(PO3)5,Pc
3982,0.046520554,"['Li', 'O', 'P', 'V']",mp-850768,4,Li9V6(P8O29)2,P1
3983,0.04655527,"['Li', 'O', 'P', 'V']",mp-863865,4,Li3V3P8O29,P1
3984,0.046558482,"['Li', 'O', 'P', 'V']",mp-764077,4,Li3V3P8O29,P1
3985,0.046561526,"['Fe', 'Li', 'O']",mp-762455,3,Li4(FeO2)5,P1
3986,0.046564666,"['Cr', 'Li', 'O', 'V']",mp-780821,4,Li3VCr3O8,C2/m
3987,0.046568819,"['Li', 'O', 'P', 'V']",mp-764990,4,Li4V3P8O29,P1
3988,0.046572102,"['Co', 'Li', 'O', 'Si']",mp-764945,4,LiCoSiO4,R3
3989,0.046578785,"['Li', 'O', 'P', 'V']",mp-1177203,4,Li4V3P8O29,Cc
3990,0.046594275,"['Li', 'O', 'P', 'V']",mp-1177383,4,Li4V3P8O29,P1
3991,0.046594945,"['Li', 'Mg', 'Na', 'O']",mp-1040115,4,NaLiMg30O31,Pmm2
3992,0.046621721,"['Li', 'Nb', 'O']",mp-755559,3,LiNbO3,C2/m
3993,0.046632675,"['Li', 'Ni', 'O', 'Si']",mp-767302,4,Li2SiNiO4,P2_1
3994,0.04665477,"['Li', 'Mn', 'O', 'P']",mp-761591,4,Li3Mn2(PO4)3,C2
3995,0.046658512,"['Cu', 'Li', 'O', 'V']",mp-774942,4,Li2V3CuO8,P4_3
3996,0.046675227,"['B', 'Fe', 'Li', 'O']",mp-778331,4,Li5Fe8(BO3)8,P1
3997,0.046684605,"['Li', 'O', 'Ti']",mp-756035,3,LiTi4O8,Pm
3998,0.046721147,"['B', 'Fe', 'Li', 'O']",mp-775269,4,LiFe2(BO3)2,Pc
3999,0.046730049,"['Li', 'Mn', 'O', 'Si']",mp-766967,4,Li2Mn3(Si3O8)2,P-1
4000,0.046734928,"['Li', 'O', 'P', 'V']",mp-762951,4,Li3V3P8O29,P1
4001,0.046745292,"['Li', 'O', 'P', 'Sn']",mp-684493,4,LiSn2P3O10,P2_1/c
4002,0.046755802,"['Li', 'O', 'P', 'V']",mp-766717,4,Li3V3P8O29,P1
4003,0.046759128,"['Li', 'O', 'P', 'W']",mp-763543,4,LiP3W2O13,P-1
4004,0.046766882,"['Fe', 'Li', 'O', 'Ti']",mp-769966,4,Li3TiFe3O8,R-3m
4005,0.046770283,"['La', 'Li', 'Mg', 'O']",mp-1040126,4,LiLaMg30O32,P4/mmm
4006,0.046771304,"['B', 'Li', 'Mn', 'O']",mp-777139,4,Li2Mn3(BO3)3,P1
4007,0.046772069,"['Co', 'Li', 'Mn', 'O']",mp-777604,4,Li2MnCo3O8,C2/m
4008,0.046801547,"['Li', 'Mn', 'O', 'P']",mp-762717,4,LiMn2(PO4)3,P1
4009,0.046829049,"['Li', 'O', 'P', 'V']",mp-764988,4,Li4V3P8O29,P1
4010,0.046829416,"['Li', 'O', 'P', 'Sb']",mp-684082,4,LiSb(PO3)4,C2/m
4011,0.046842393,"['Li', 'Ni', 'O', 'P']",mp-540272,4,LiNiP2O7,P-1
4012,0.046843533,"['Li', 'Nb', 'O']",mp-772535,3,LiNb13O33,C2/m
4013,0.046894206,"['Cu', 'Li', 'O', 'Ta']",mp-767456,4,Li3Ta5Cu2O15,R3
4014,0.046895465,"['Li', 'O', 'P', 'V']",mp-850234,4,Li3V3P8O29,P1
4015,0.04690053,"['B', 'Li', 'O']",mp-768960,3,Li5BO4,Pbca
4016,0.04690082,"['Fe', 'Li', 'Ni', 'O']",mp-772596,4,Li2FeNi3O8,Cmc2_1
4017,0.046904423,"['Co', 'Li', 'O', 'P']",mp-540530,4,Li2Co(PO3)4,P-1
4018,0.046905119,"['Cu', 'Li', 'O', 'Sb']",mp-850358,4,LiCuSbO4,Imma
4019,0.046909672,"['Co', 'Li', 'O', 'P']",mp-31591,4,LiCoPO4,Pna2_1
4020,0.046911616,"['Li', 'O', 'P', 'V']",mp-763554,4,LiVP2O7,P2_1/c
4021,0.046916839,"['Li', 'O', 'P', 'V']",mp-1177215,4,Li4V3P8O29,P1
4022,0.04691791,"['Li', 'O', 'P', 'V']",mp-1177200,4,Li4V3P8O29,P1
4023,0.046938349,"['Li', 'O', 'V']",mp-767268,3,LiV9O22,P2_1/m
4024,0.046945193,"['Li', 'O', 'P', 'V']",mp-764994,4,Li3V3P8O29,P1
4025,0.046984291,"['Li', 'O', 'P', 'V']",mp-863894,4,Li3V3P8O29,P1
4026,0.047001793,"['Li', 'Mg', 'Na', 'O']",mp-1040127,4,NaLiMg30O31,Pmm2
4027,0.047008778,"['Li', 'O', 'P', 'V']",mp-853242,4,Li4V3P8O29,P1
4028,0.047024981,"['Co', 'Li', 'Mn', 'O']",mp-1173968,4,Li3Mn2CoO6,C2/m
4029,0.047030039,"['Li', 'Mn', 'O', 'Ti']",mp-762872,4,Li3Ti2Mn3O10,P-1
4030,0.047031524,"['Li', 'Mn', 'O', 'P']",mp-1176700,4,LiMn(PO3)4,C2/c
4031,0.047041846,"['Li', 'O', 'V']",mp-765419,3,Li6V5O12,P1
4032,0.047045209,"['Li', 'O', 'P', 'V']",mp-851266,4,Li4V3P8O29,P1
4033,0.047045411,"['Li', 'O', 'P', 'V']",mp-762188,4,Li2VP3O10,P2_1/c
4034,0.047048772,"['Li', 'O', 'P', 'Sb']",mp-684106,4,LiSbP2O7,P2_1/c
4035,0.04705438,"['Li', 'O', 'P', 'V']",mp-1177532,4,Li3V3P8O29,P1
4036,0.047059749,"['Cr', 'Fe', 'Li', 'O']",mp-771210,4,Li3CrFe3O8,R-3m
4037,0.047059933,"['Li', 'Ni', 'O', 'W']",mp-1177957,4,Li2Ni3WO8,P2_12_12_1
4038,0.047064477,"['Li', 'O', 'P', 'V']",mp-1177309,4,Li4V3P8O29,C2
4039,0.047076078,"['Li', 'O', 'P', 'Sb']",mp-684104,4,LiSb2P5O16,Pc
4040,0.047084056,"['C', 'Cu', 'Li', 'O']",mp-753425,4,LiCuCO3,Cmme
4041,0.047087036,"['B', 'Fe', 'Li', 'O']",mp-771077,4,LiFeB2O5,P2_1/c
4042,0.047100084,"['Co', 'Cu', 'Li', 'O']",mp-767275,4,Li2CoCuO4,Imma
4043,0.047107388,"['B', 'Fe', 'Li', 'O']",mp-764656,4,LiFe2(BO3)2,P1
4044,0.047130619,"['Li', 'Ni', 'O', 'P']",mp-765858,4,Li2Ni3(P2O7)2,P-1
4045,0.047135586,"['Fe', 'Li', 'Ni', 'O']",mp-771673,4,Li4Fe3NiO8,P1
4046,0.047138505,"['Li', 'O', 'P', 'V']",mp-851247,4,Li4V3P8O29,P1
4047,0.047161929,"['K', 'Li', 'O', 'W']",mp-771634,4,KLi(WO3)3,Cc
4048,0.04716769,"['Li', 'O', 'P', 'V']",mp-764119,4,Li3V3P8O29,P1
4049,0.047173309,"['Fe', 'Li', 'O', 'P']",mp-774251,4,LiFePO4,P-1
4050,0.0471782,"['Fe', 'Li', 'O', 'P']",mp-761461,4,LiFePO4,Pna2_1
4051,0.047196405,"['Li', 'Mn', 'O', 'V']",mp-849953,4,Li2Mn3VO8,P2_1
4052,0.047196894,"['B', 'Co', 'Li', 'O']",mp-770007,4,LiCoBO3,P2_1/c
4053,0.047201528,"['Fe', 'Li', 'O', 'P']",mp-762492,4,Li2Fe(PO3)4,P2_1/c
4054,0.047221382,"['Cr', 'Li', 'O']",mp-770684,3,LiCr2O4,Pnma
4055,0.047242032,"['Li', 'O', 'P', 'V']",mp-766674,4,Li3V3P8O29,P1
4056,0.047247638,"['Co', 'Li', 'O', 'Sn']",mp-765424,4,Li2Co3SnO8,R-3m
4057,0.047253106,"['Li', 'O', 'P', 'V']",mp-851256,4,Li4V3P8O29,P1
4058,0.047259013,"['Li', 'Ni', 'O', 'Ti']",mp-770851,4,Li2TiNi2O5,C2
4059,0.047276739,"['C', 'Li', 'O', 'V']",mp-1177242,4,Li4V3(CO3)6,P-1
4060,0.047277772,"['C', 'Li', 'O', 'V']",mp-1177812,4,Li2VCO5,Pbam
4061,0.047295874,"['Li', 'Mn', 'O', 'Ti']",mp-763669,4,Li4Ti2Mn3O10,P-1
4062,0.047323069,"['Fe', 'Li', 'O', 'P']",mp-761518,4,Li2Fe(PO4)2,P2_1/c
4063,0.047333781,"['Li', 'O', 'P', 'V']",mp-763355,4,Li4V5(P3O11)2,P2_1/c
4064,0.047334517,"['Co', 'Li', 'O']",mp-771197,3,Li4Co7O16,P2_1
4065,0.047356331,"['Li', 'O', 'P', 'V']",mp-762955,4,Li3V3P8O29,P1
4066,0.047360881,"['Fe', 'Li', 'O', 'Si']",mp-762786,4,Li3Fe2(SiO4)2,P2_1
4067,0.047365648,"['Co', 'Li', 'O', 'P']",mp-1177505,4,Li4Co2(PO4)3,Pbcn
4068,0.047390604,"['Li', 'Ni', 'O', 'Sn']",mp-762617,4,Li4Ni3(SnO5)2,P-1
4069,0.047405919,"['Li', 'O', 'P', 'V']",mp-851055,4,Li4V3P8O29,P1
4070,0.047413164,"['Li', 'Mn', 'O']",mp-850107,3,LiMnO2,Pmmn
4071,0.047425312,"['Li', 'Mn', 'O', 'P']",mp-704962,4,Li3Mn3(PO4)4,P2_1
4072,0.047450264,"['C', 'Li', 'Mn', 'O']",mp-765023,4,Li5Mn(CO3)4,P2_1/c
4073,0.047461277,"['Li', 'Mn', 'O', 'P']",mp-540021,4,LiMn2P3O11,C2
4074,0.047492876,"['Ga', 'Li', 'O', 'V']",mp-770840,4,LiVGaO4,Imma
4075,0.047497631,"['Co', 'Li', 'O', 'P']",mp-767819,4,LiCoP2O7,Pc
4076,0.047501219,"['Li', 'O', 'P', 'V']",mp-775383,4,Li4V3P8O29,P1
4077,0.047531616,"['Li', 'O', 'P', 'V']",mp-1177218,4,Li4V3P8O29,P1
4078,0.047533901,"['Li', 'O', 'P', 'Sb']",mp-759251,4,LiSb(PO3)4,P2_1/c
4079,0.047536217,"['B', 'Li', 'Mn', 'O']",mp-780877,4,Li2Mn3(BO3)3,P-1
4080,0.047544491,"['B', 'Li', 'Mn', 'O']",mp-780149,4,Li2Mn3(BO3)3,P-1
4081,0.047556659,"['C', 'Co', 'Li', 'O']",mp-763408,4,Li3Co2(CO3)4,P1
4082,0.047579832,"['Cr', 'Li', 'Ni', 'O']",mp-774237,4,Li5Cr2Ni5O12,C2
4083,0.047594707,"['C', 'Li', 'O', 'V']",mp-762048,4,Li3V(CO3)3,Ama2
4084,0.047608097,"['B', 'Li', 'Mn', 'O']",mp-781502,4,Li2Mn3(BO3)3,P1
4085,0.047615592,"['Li', 'Mn', 'O', 'V']",mp-775779,4,Li3MnV4O8,C2/m
4086,0.047623576,"['C', 'Co', 'Li', 'O']",mp-1178046,4,Li2Co(CO3)2,P2_1/c
4087,0.047627772,"['Li', 'Mn', 'O']",mp-762514,3,LiMn3O6,P1
4088,0.047633548,"['Ba', 'Li', 'O', 'Ti']",mp-768185,4,Ba4Li4Ti19O44,P1
4089,0.047640265,"['Li', 'Mn', 'O', 'Si']",mp-764791,4,Li2Mn(SiO3)2,Cc
4090,0.047678495,"['Cr', 'Li', 'Mn', 'O']",mp-853217,4,Li9Mn7Cr12O48,P1
4091,0.047684063,"['Li', 'O', 'Ti']",mp-38468,3,Li7Ti12O24,Pm
4092,0.047724447,"['B', 'Cr', 'Li', 'O']",mp-770242,4,LiCrBO3,P-1
4093,0.04772745,"['Li', 'O', 'Ti', 'V']",mp-773465,4,Li4TiV3O10,P-4m2
4094,0.047731401,"['Li', 'O', 'Ta', 'W']",mp-768074,4,LiTaWO6,P4_122
4095,0.047748744,"['Cu', 'Li', 'O', 'P']",mp-26467,4,LiCuPO4,P2_1/c
4096,0.0477692,"['Fe', 'Li', 'O', 'P']",mp-1177390,4,Li5Fe4(P2O7)4,P1
4097,0.047786804,"['Fe', 'Li', 'O']",mp-1178116,3,Li(Fe2O3)4,Cc
4098,0.047814217,"['C', 'Cr', 'Li', 'O']",mp-1177456,4,Li4Cr3(CO3)6,P-1
4099,0.047817233,"['Li', 'O', 'P', 'V']",mp-1177540,4,Li3V3P8O29,P1
4100,0.04783442,"['Fe', 'Li', 'Ni', 'O']",mp-762842,4,Li6FeNi9O20,P-1
4101,0.047844079,"['Li', 'Mn', 'O', 'V']",mp-773501,4,Li3MnV2O6,C2/m
4102,0.047848859,"['Li', 'Ni', 'O', 'Sb']",mp-772577,4,Li3Ni3SbO8,R-3m
4103,0.047855752,"['Cu', 'Li', 'O', 'P']",mp-26513,4,LiCuPO4,R3
4104,0.047861301,"['Cu', 'Li', 'O', 'V']",mp-505131,4,LiVCuO4,Imma
4105,0.047874734,"['Hf', 'Li', 'Mg', 'O']",mp-1040044,4,LiHfMg30O31,Pmm2
4106,0.047890786,"['Li', 'Mo', 'O', 'P']",mp-704204,4,Li2MoP4O13,P-1
4107,0.04790718,"['Li', 'O', 'P', 'V']",mp-761335,4,Li4V(PO4)2,P2_1/c
4108,0.047908916,"['Li', 'O', 'P', 'V']",mp-764076,4,Li3V3P8O29,P1
4109,0.047928852,"['Co', 'Li', 'Mn', 'O']",mp-1173973,4,Li5Mn2CoO8,C2/m
4110,0.047932633,"['Co', 'Li', 'O']",mp-763322,3,Li4CoO4,Pc
4111,0.047933777,"['B', 'Fe', 'Li', 'O']",mp-770663,4,Li2FeBO4,Pmn2_1
4112,0.047938322,"['Li', 'Mn', 'O', 'P']",mp-690866,4,LiMnPO4,P2_1
4113,0.0479405,"['Fe', 'Li', 'O', 'Si']",mp-1177108,4,Li5Fe4(Si3O10)2,P1
4114,0.047948126,"['Li', 'Mo', 'O', 'P']",mp-540075,4,Li4MoP2O9,C2/m
4115,0.047990168,"['Cu', 'Li', 'O']",mp-756188,3,LiCu3O4,C2/c
4116,0.047997054,"['Li', 'O', 'P', 'Sn']",mp-766457,4,LiSnP2O7,P-1
4117,0.04799965,"['Fe', 'Li', 'O', 'Si']",mp-767996,4,Li3Fe2(SiO4)2,P1
4118,0.048012877,"['Cu', 'Li', 'O', 'P']",mp-759346,4,LiCuPO4,Cc
4119,0.048024252,"['Cu', 'Li', 'O', 'P']",mp-759938,4,Li2Cu3(P2O7)2,P-1
4120,0.048030592,"['Co', 'Li', 'Nb', 'O']",mp-762054,4,Li2NbCo3O8,P4_332
4121,0.048042387,"['Li', 'Mn', 'O', 'Sn']",mp-772741,4,Li2Mn3SnO8,R-3m
4122,0.048069491,"['Li', 'Ni', 'O', 'Ti']",mp-776671,4,Li2TiNi2O5,C2/c
4123,0.048073408,"['Li', 'O', 'P', 'V']",mp-766732,4,Li4V3P8O29,Cc
4124,0.04807498,"['Li', 'Mn', 'O', 'P']",mp-850918,4,Li2Mn5(PO4)4,P-1
4125,0.048083026,"['Co', 'Li', 'Mg', 'O']",mp-1177928,4,Li2MgCo3O8,C2/m
4126,0.048087916,"['Co', 'Li', 'O', 'V']",mp-770971,4,Li2VCoO4,P-1
4127,0.048097195,"['Fe', 'K', 'Li', 'O']",mp-772421,4,KLi2FeO3,Cc
4128,0.048101906,"['Co', 'Fe', 'Li', 'O']",mp-763033,4,Li2Fe3CoO8,C2/m
4129,0.048110376,"['Co', 'Fe', 'Li', 'O']",mp-763770,4,Li3Fe2Co3O10,Pm
4130,0.048111178,"['B', 'Fe', 'Li', 'O']",mp-764678,4,LiFe2(BO3)2,P1
4131,0.048119766,"['Li', 'Mn', 'O', 'P']",mp-762568,4,Li2Mn(PO4)2,P-1
4132,0.048125146,"['Co', 'Li', 'Mn', 'O']",mp-1173979,4,Li5Mn2CoO8,C2/m
4133,0.048146443,"['Li', 'Mo', 'O', 'P']",mp-687229,4,Li2Mo(PO3)8,P1
4134,0.048147988,"['Cu', 'Li', 'O', 'P']",mp-26851,4,Li2CuPO4,Pm
4135,0.04816713,"['Li', 'Nb', 'O', 'P']",mp-26389,4,LiNb2(PO4)3,P2_1/c
4136,0.04817179,"['B', 'Fe', 'Li', 'O']",mp-769424,4,Li5Fe6(BO3)6,Cm
4137,0.048185876,"['Fe', 'Li', 'Mn', 'O']",mp-765758,4,Li3MnFe3O8,P6_3mc
4138,0.048205355,"['Cr', 'Li', 'O', 'Si']",mp-762874,4,Li4Cr2Si4O13,Pna2_1
4139,0.048230219,"['Fe', 'Li', 'O']",mp-763688,3,Li7FeO6,R3
4140,0.048239816,"['B', 'Fe', 'Li', 'O']",mp-761304,4,Li3Fe(BO2)5,P-1
4141,0.048251492,"['Li', 'O', 'P', 'V']",mp-1177335,4,Li4V3P8O29,P1
4142,0.04825793,"['Co', 'Li', 'Ni', 'O']",mp-774305,4,LiCo2NiO6,P-1
4143,0.048259177,"['Li', 'O', 'P', 'V']",mp-764121,4,Li3V3P8O29,P1
4144,0.048271772,"['Li', 'V', 'O']",mp-762971,3,Li2V3O6,C2/m
4145,0.048272564,"['Li', 'O', 'P', 'V']",mp-764070,4,Li3V3P8O29,P1
4146,0.048274933,"['Cu', 'Li', 'O', 'Sb']",mp-756553,4,Li5Cu3(SbO5)2,P-1
4147,0.048278586,"['Li', 'O', 'P', 'V']",mp-765976,4,Li3V3P8O29,P1
4148,0.048291396,"['Li', 'O', 'P', 'V']",mp-1177676,4,Li3V3P8O29,P1
4149,0.048298877,"['Li', 'Mn', 'O', 'P']",mp-540477,4,Li2Mn(PO3)4,P-1
4150,0.048300947,"['Li', 'O', 'P', 'V']",mp-766657,4,Li4V3P8O29,P1
4151,0.048306458,"['Fe', 'Li', 'O', 'Si']",mp-767850,4,LiFeSiO4,Pna2_1
4152,0.048309277,"['Fe', 'Li', 'O', 'P']",mp-763769,4,Li2Fe(PO3)4,P-1