,e_above_hull,elements,material_id,nelements,pretty_formula,spacegroup.symbol
1542,0.016168745,"['Li', 'O', 'Ti', 'V']",mp-777694,4,Li4Ti3V5O16,P1
1543,0.016178174,"['Cr', 'Ga', 'Li', 'O']",mp-770253,4,Li4Cr3GaO8,C2/m
1544,0.016327834,"['Li', 'Mg', 'O', 'Zr']",mp-1222626,4,Li2MgZrO4,I-4m2
1545,0.016339862,"['Co', 'Li', 'O', 'P']",mp-540257,4,Li2CoP2O7,P-1
1546,0.016355923,"['Fe', 'Li', 'O', 'Sn']",mp-775023,4,Li2Fe3SnO8,R-3m
1547,0.01638132,"['Li', 'Mn', 'Ni', 'O']",mp-777117,4,Li2MnNi3O8,P1
1548,0.016385947,"['Cr', 'Li', 'Mn', 'O']",mp-781106,4,Li32Mn5Cr11O48,C2
1549,0.016424106,"['Li', 'Mn', 'O', 'Si']",mp-767709,4,Li2Mn3Si3O10,C2/c
1550,0.016464185,"['Li', 'Mn', 'O', 'P']",mp-853275,4,Li7Mn4(P2O7)4,P1
1551,0.016473926,"['La', 'Li', 'O']",mp-756544,3,LiLaO2,P2_1/c
1552,0.016486704,"['Li', 'O', 'P', 'Sn']",mp-504211,4,LiSn(PO3)3,P-1
1553,0.016488212,"['Fe', 'Li', 'Ni', 'O']",mp-771442,4,Li5Fe2Ni3O10,P-1
1554,0.016500391,"['Li', 'O', 'P', 'V']",mp-504206,4,LiV(PO3)5,P2_1/c
1555,0.016503452,"['Fe', 'Li', 'O', 'P']",mp-1176933,4,Li7Fe4(P2O7)4,P1
1556,0.016517854,"['Li', 'Mn', 'O']",mp-1100536,3,Li9Mn7O16,P-1
1557,0.016524584,"['Cr', 'Li', 'O', 'P']",mp-585354,4,LiCr2P3O10,P2_1/m
1558,0.016528533,"['Li', 'Mg', 'O', 'Ti']",mp-772783,4,Li2Mg3Ti6O16,P2_1
1559,0.016553405,"['Li', 'O', 'Ti', 'V']",mp-762150,4,LiTi2V3O12,P1
1560,0.016575775,"['B', 'Li', 'O', 'Sr']",mp-554003,4,Sr4Li(BO3)3,Ia-3d
1561,0.016585331,"['Li', 'O', 'P', 'V']",mp-1176857,4,Li7V3P8O29,Cc
1562,0.016598502,"['Li', 'Na', 'O', 'Ti']",mp-775424,4,Na5Li4Ti5O14,P1
1563,0.016608381,"['Cr', 'Li', 'Ni', 'O']",mp-769999,4,Li4Cr3NiO8,P-1
1564,0.016610828,"['Li', 'O', 'P', 'Sn']",mp-26299,4,LiSnPO4,P2_1/c
1565,0.016655414,"['Li', 'Ni', 'O']",mp-769473,3,Li13Ni9O22,P-1
1566,0.016666831,"['Co', 'Li', 'O']",mp-771191,3,Li5Co7O16,P2_1
1567,0.016668902,"['Cr', 'Li', 'Mn', 'O']",mp-775295,4,Li2MnCr3O8,R-3m
1568,0.016678742,"['Li', 'O', 'P', 'Sb']",mp-684427,4,LiSb(PO3)4,P2_1/c
1569,0.016689904,"['Fe', 'Li', 'O', 'P']",mp-773377,4,LiFePO4,Cc
1570,0.016692902,"['Li', 'O', 'P', 'V']",mp-765099,4,Li6V3P8O29,P-3c1
1571,0.016694437,"['Cu', 'Li', 'O', 'P']",mp-585339,4,LiCu2P5O16,Pc
1572,0.016704205,"['Fe', 'Li', 'O', 'Si']",mp-764346,4,Li2FeSiO4,Pna2_1
1573,0.016709606,"['Li', 'Mn', 'O', 'P']",mp-1176911,4,Li7Mn4(P2O7)4,P2_1
1574,0.016722798,"['Li', 'Mn', 'O']",mp-1100553,3,Li9Mn7O16,P-1
1575,0.016729655,"['Co', 'Li', 'Ni', 'O']",mp-778575,4,Li4Co3(NiO4)3,P-1
1576,0.016733855,"['Co', 'Fe', 'Li', 'O']",mp-771920,4,Li4Fe3CoO8,R-3m
1577,0.016819746,"['Cr', 'Li', 'O', 'Ti']",mp-778043,4,Li32Ti3Cr13O48,P1
1578,0.016835604,"['Cr', 'Li', 'Ni', 'O']",mp-770249,4,Li4Cr3NiO8,P-1
1579,0.016837622,"['Cr', 'Li', 'Mn', 'O']",mp-779232,4,Li32Mn3Cr13O48,P1
1580,0.016841031,"['Al', 'Fe', 'Li', 'O']",mp-772267,4,Li2AlFeO4,Pc
1581,0.016845006,"['C', 'Li', 'Ni', 'O']",mp-763542,4,Li3Ni2(CO3)4,P1
1582,0.016858411,"['Li', 'O', 'P', 'V']",mp-761913,4,Li7V3P8O29,P1
1583,0.016879707,"['Li', 'O', 'P', 'V']",mp-761632,4,Li7V3P8O29,P1
1584,0.016895833,"['Li', 'Ni', 'O']",mp-690633,3,LiNi4O5,I4/m
1585,0.016907174,"['Cr', 'Li', 'O', 'Ti']",mp-777614,4,Li32Ti3Cr13O48,P1
1586,0.01696119,"['C', 'Fe', 'Li', 'O']",mp-767993,4,Li2Fe(CO3)2,Fdd2
1587,0.016963474,"['Li', 'Mn', 'O']",mp-767340,3,LiMnO2,P-1
1588,0.016970945,"['Li', 'O', 'P', 'V']",mp-32523,4,LiV(PO3)4,Cc
1589,0.016982386,"['Cr', 'Li', 'O', 'Ti']",mp-771268,4,Li4TiCrO6,C2/c
1590,0.016987671,"['Cr', 'Li', 'Mn', 'O']",mp-778893,4,Li32Mn3Cr13O48,P1
1591,0.017010537,"['Li', 'O', 'P', 'V']",mp-851288,4,Li7V3P8O29,P1
1592,0.017017822,"['Li', 'Ni', 'O', 'Si']",mp-775084,4,Li2SiNiO4,Pmn2_1
1593,0.017028834,"['Ba', 'Li', 'Nb', 'O']",mp-773072,4,Ba8LiNb7O24,P3m1
1594,0.017033401,"['Fe', 'Li', 'O', 'Si']",mp-763629,4,Li2FeSiO4,Pc
1595,0.017078879,"['Cr', 'Li', 'O', 'Ti']",mp-777715,4,Li32Ti3Cr13O48,P1
1596,0.017079815,"['Li', 'Mg', 'O', 'Ti']",mp-1040361,4,LiMg30TiO32,P4/mmm
1597,0.017094093,"['Li', 'Mn', 'O']",mp-1174296,3,Li4Mn3O7,P-1
1598,0.017094518,"['Li', 'Ni', 'O', 'P']",mp-504233,4,Li4Ni5(P3O11)2,P2_1/c
1599,0.017110831,"['Li', 'Mn', 'Nb', 'O']",mp-861574,4,LiMnNbO4,P4_322
1600,0.017110916,"['Cr', 'Li', 'O', 'Ti']",mp-771277,4,Li24Ti5Cr7O36,P1
1601,0.017134163,"['Co', 'Li', 'O', 'P']",mp-31618,4,Li3Co2P5O16,P2/c
1602,0.017136162,"['Cr', 'Li', 'O', 'Ti']",mp-777523,4,Li32Ti3Cr13O48,P1
1603,0.017138025,"['Li', 'O', 'P', 'V']",mp-32408,4,LiVP2O7,P1
1604,0.01713849,"['Fe', 'Li', 'Mo', 'O']",mp-1222986,4,Li3Fe(MoO4)3,Pc
1605,0.017146577,"['Li', 'O', 'P', 'V']",mp-764129,4,Li9V3P8O29,P1
1606,0.017169976,"['Li', 'O', 'P', 'Sn']",mp-27033,4,Li2SnP2O7,C2/c
1607,0.017171453,"['Cu', 'Li', 'Ni', 'O']",mp-771105,4,Li5Cu2Ni5O12,C2
1608,0.017173954,"['Co', 'Cr', 'Li', 'O']",mp-765927,4,Li2CrCoO4,Imma
1609,0.017180514,"['Li', 'Mn', 'O']",mp-1100549,3,Li9Mn7O16,P-1
1610,0.017187247,"['Li', 'Mn', 'O']",mp-1100551,3,Li9Mn7O16,P-1
1611,0.017191497,"['Fe', 'Li', 'Mn', 'O']",mp-773292,4,Li3Mn(FeO3)2,C2/m
1612,0.017192144,"['Li', 'Mn', 'O']",mp-1100492,3,Li9Mn7O16,C2/m
1613,0.017200862,"['Li', 'Ni', 'O']",mp-770635,3,LiNiO2,I4_1/amd
1614,0.017206128,"['Cr', 'Li', 'Mn', 'O']",mp-778776,4,Li32Mn3Cr13O48,P1
1615,0.017208285,"['Cr', 'Li', 'O', 'Ti']",mp-778621,4,Li32Ti3Cr13O48,P1
1616,0.01721127,"['Li', 'O', 'P', 'V']",mp-1176838,4,Li7V4(PO4)6,R3
1617,0.017223295,"['Cr', 'Li', 'Mn', 'O']",mp-778415,4,Li32Mn3Cr13O48,P1
1618,0.017227757,"['Li', 'Mn', 'O', 'P']",mp-1177127,4,Li7Mn4(P2O7)4,P1
1619,0.017241494,"['Fe', 'Li', 'Ni', 'O']",mp-776318,4,Li2FeNi3O8,P1
1620,0.017243855,"['Li', 'O', 'P', 'W']",mp-763566,4,LiP2WO7,P2_1
1621,0.017248035,"['Fe', 'Li', 'O', 'Sn']",mp-1177968,4,Li2FeSnO4,C2/c
1622,0.017273257,"['Cr', 'Li', 'O', 'P']",mp-504358,4,LiCr6P7O24,P2_1/m
1623,0.017295725,"['Cr', 'Li', 'O', 'Ti']",mp-777524,4,Li32Ti3Cr13O48,P1
1624,0.017315142,"['Ga', 'Li', 'Mn', 'O']",mp-768038,4,Li2Mn3GaO8,R-3m
1625,0.017316127,"['Li', 'Mn', 'O', 'P']",mp-31996,4,LiMn2(PO4)3,P-1
1626,0.017319164,"['Li', 'Ni', 'O', 'Sn']",mp-770989,4,Li4Ni3SnO8,R-3m
1627,0.017328741,"['Cr', 'Li', 'Mn', 'O']",mp-779397,4,Li32Mn3Cr13O48,P1
1628,0.017331223,"['Li', 'O', 'P', 'V']",mp-777495,4,Li2VP2O7,P2_1
1629,0.017331254,"['Fe', 'Li', 'O']",mp-771923,3,Li6FeO4,P4_2/nmc
1630,0.017336609,"['Cr', 'Li', 'O', 'Ti']",mp-1177743,4,Li32Ti3Cr13O48,P1
1631,0.017342521,"['Cr', 'Li', 'O', 'P']",mp-705291,4,LiCrP2O7,P2_1/c
1632,0.017365293,"['Cr', 'Li', 'O', 'Ti']",mp-777910,4,Li32Ti3Cr13O48,P1
1633,0.017371789,"['Li', 'Ni', 'O', 'Si']",mp-767851,4,Li2SiNiO4,Pnma
1634,0.017379448,"['Li', 'Mn', 'O', 'P']",mp-765570,4,Li2Mn(PO4)2,C2/c
1635,0.01738488,"['Li', 'Nb', 'O']",mp-770799,3,Li5NbO5,C2/c
1636,0.017399213,"['Cr', 'Li', 'Ni', 'O']",mp-770297,4,Li4Cr3NiO8,P-1
1637,0.017399825,"['Li', 'O', 'P', 'Zr']",mp-541661,4,LiZr2(PO4)3,R-3c
1638,0.017415203,"['B', 'Li', 'Ni', 'O']",mp-778543,4,LiNiBO3,P-6
1639,0.017424124,"['Li', 'O', 'P', 'V']",mp-1176845,4,Li7V3P8O29,P1
1640,0.017428381,"['Cr', 'Li', 'Mn', 'O']",mp-778896,4,Li32Mn3Cr13O48,P1
1641,0.017468891,"['Li', 'Mn', 'O', 'P']",mp-1176664,4,LiMn3(PO4)3,P1
1642,0.017469303,"['Li', 'Ni', 'O', 'Sb']",mp-775726,4,Li2Ni3SbO8,P4_332
1643,0.017474847,"['Li', 'O', 'V']",mp-761629,3,Li17V16O32,Cm
1644,0.017491957,"['Li', 'Ni', 'O', 'P']",mp-540237,4,Li14Ni9(P2O7)8,P-1
1645,0.017516988,"['Li', 'Ni', 'O']",mp-771626,3,Li5Ni7O12,C2
1646,0.017533372,"['Fe', 'Li', 'O']",mp-25516,3,Li(FeO2)2,Fd-3m
1647,0.017549438,"['Cr', 'Li', 'Mn', 'O']",mp-779375,4,Li32Mn3Cr13O48,P1
1648,0.017579534,"['Li', 'O', 'P', 'V']",mp-762141,4,Li7V3P8O29,P1
1649,0.017592085,"['Cr', 'Li', 'Mo', 'O']",mp-1191696,4,LiCr(MoO4)2,P-1
1650,0.017595637,"['Cr', 'Li', 'O', 'Ti']",mp-778542,4,Li32Ti3Cr13O48,P1
1651,0.017601224,"['Li', 'Mn', 'O', 'Sn']",mp-771223,4,Li5Mn3(SnO5)2,P-1
1652,0.017614369,"['Li', 'O', 'V', 'W']",mp-1177825,4,Li2V3WO8,P1
1653,0.017616703,"['Co', 'Li', 'O', 'Sb']",mp-761741,4,LiCoSbO4,P4_322
1654,0.017619268,"['Cr', 'Li', 'Mn', 'O']",mp-779798,4,Li32Mn5Cr11O48,C2
1655,0.017676566,"['Li', 'O', 'P', 'V']",mp-1177026,4,Li7V3P8O29,P1
1656,0.017702909,"['Li', 'Mo', 'O', 'P']",mp-705470,4,Li3Mo4P5O24,Cc
1657,0.017740608,"['Li', 'O', 'P', 'V']",mp-1176849,4,Li7V3P8O29,Cc
1658,0.017764198,"['Li', 'Mn', 'O']",mp-1100557,3,Li9Mn7O16,P-1
1659,0.017765469,"['Cr', 'Li', 'O', 'P']",mp-689934,4,Li2CrP2O7,C2/c
1660,0.017778579,"['Cr', 'Li', 'Mn', 'O']",mp-779377,4,Li32Mn3Cr13O48,P1
1661,0.017805362,"['Li', 'O', 'P', 'V']",mp-764244,4,Li9V3P8O29,P1
1662,0.017823684,"['Cr', 'Li', 'O', 'Ti']",mp-778343,4,Li32Ti3Cr13O48,P1
1663,0.017828545,"['Li', 'Mn', 'O', 'P']",mp-771392,4,LiMn3(PO4)3,P1
1664,0.017837688,"['Li', 'Fe', 'O']",mp-18782,3,LiFeO2,I4_1/amd
1665,0.017844293,"['Cr', 'Li', 'Mn', 'O']",mp-770504,4,Li24MnCr11O36,P1
1666,0.017849117,"['Fe', 'Li', 'O', 'Ti']",mp-774090,4,LiTiFeO4,Imma
1667,0.017883425,"['Li', 'Na', 'O', 'V']",mp-777597,4,NaLi2V3O9,C2
1668,0.017890056,"['Li', 'O', 'P', 'V']",mp-764135,4,Li2VP2O7,P2_1/c
1669,0.017890252,"['Cr', 'Li', 'O', 'Ti']",mp-779077,4,Li24TiCr11O36,P1
1670,0.017895346,"['Li', 'Mn', 'O']",mp-1100556,3,Li9Mn7O16,P-1
1671,0.017914452,"['Cu', 'Li', 'O', 'P']",mp-672959,4,Li2Cu(PO3)4,P-1
1672,0.017916644,"['Li', 'O', 'P']",mp-1020027,3,Li4P2O7,P2_1/c
1673,0.017919449,"['Cr', 'Li', 'Mn', 'O']",mp-779398,4,Li32Mn3Cr13O48,P1
1674,0.017921307,"['Cr', 'Li', 'O', 'Ti']",mp-769687,4,Li4TiCrO6,C2
1675,0.017929409,"['Al', 'B', 'Li', 'O']",mp-1192295,4,Li3Al(BO3)2,P-1
1676,0.017930676,"['Li', 'O', 'Ti']",mp-770456,3,Li6Ti2O7,C2
1677,0.01793357,"['Cr', 'Li', 'Mn', 'O']",mp-1178077,4,Li24MnCr11O36,C2
1678,0.017960466,"['Li', 'Mn', 'O', 'P']",mp-1176691,4,LiMn3(PO4)3,P1
1679,0.017982163,"['Li', 'O', 'Ti']",mp-1176936,3,Li6Ti2O7,P2_1/c
1680,0.018005037,"['Li', 'Mn', 'O', 'P']",mp-850269,4,Li7Mn4(P2O7)4,P1
1681,0.018020551,"['Li', 'Nb', 'O', 'Sr']",mp-756781,4,Sr3Li2Nb4O13,I4/mmm
1682,0.018042428,"['Ga', 'Ge', 'Li', 'O']",mp-1222561,4,Li5Ga(GeO4)2,P2_1
1683,0.018046281,"['Co', 'Fe', 'Li', 'O']",mp-765611,4,Li10Fe3Co7O20,P2/m
1684,0.018048977,"['Co', 'Li', 'Mn', 'O']",mp-1175269,4,Li7Mn4CoO12,C2
1685,0.018051135,"['Li', 'Mn', 'O']",mp-1174220,3,Li4Mn3O7,P-1
1686,0.018106752,"['Li', 'Mn', 'O']",mp-1100481,3,Li9Mn7O16,P2/m
1687,0.018156525,"['C', 'Li', 'Ni', 'O']",mp-767744,4,Li2Ni(CO3)2,P1
1688,0.018158107,"['Li', 'O', 'P', 'V']",mp-762481,4,Li8V3P8O29,P1
1689,0.018158732,"['Fe', 'Li', 'O']",mp-763305,3,Li8FeO6,Cmc2_1
1690,0.018206521,"['Li', 'Mn', 'O']",mp-694974,3,Li7Mn16O32,P1
1691,0.018219663,"['Li', 'Mn', 'O', 'P']",mp-763800,4,Li3Mn2(PO4)3,P2_12_12
1692,0.018244689,"['Cr', 'Li', 'Mn', 'O']",mp-1101152,4,Li2MnCrO4,P2/m
1693,0.018246892,"['Cr', 'Li', 'Ni', 'O']",mp-770039,4,Li4Cr3NiO8,P-1
1694,0.018272038,"['Li', 'Mn', 'O', 'W']",mp-775846,4,Li4Mn(WO4)3,P2
1695,0.018273228,"['Co', 'Li', 'O', 'P']",mp-705277,4,Li2Co(PO3)4,P2_1/c
1696,0.01828095,"['Li', 'Mn', 'O', 'P']",mp-1176687,4,LiMn3(PO4)3,P1
1697,0.018326923,"['Cr', 'Li', 'O', 'Ti']",mp-771279,4,Li4TiCrO6,C2
1698,0.01834945,"['Cr', 'Li', 'O', 'P']",mp-1101544,4,Li2Cr5(PO4)4,P-1
1699,0.018366578,"['Li', 'Mn', 'O', 'P']",mp-765875,4,LiMnPO4,I-4
1700,0.018402545,"['Li', 'Mn', 'O']",mp-1174248,3,Li4Mn3O7,P-1
1701,0.018428667,"['Cr', 'Li', 'O']",mp-770678,3,Li2Cr2O7,P2_1/c
1702,0.018434849,"['Li', 'Nb', 'O', 'W']",mp-1222358,4,LiNbWO6,R3
1703,0.018462898,"['Cr', 'Li', 'O', 'Ti']",mp-779761,4,Li32Ti5Cr11O48,C2
1704,0.018464554,"['Li', 'Ni', 'O']",mp-767653,3,LiNi6O7,P-1
1705,0.018484111,"['Li', 'Mn', 'O']",mp-1100540,3,Li9Mn7O16,P-1
1706,0.018486122,"['Li', 'Nb', 'O', 'Ti']",mp-767490,4,Li9Ti12NbO30,R3
1707,0.018496342,"['Li', 'O', 'Si', 'V']",mp-767555,4,LiVSiO4,Pbcn
1708,0.018498328,"['Li', 'O', 'P', 'V']",mp-1176872,4,Li7V3P8O29,P1
1709,0.018526022,"['Li', 'Mg', 'Ni', 'O']",mp-771730,4,Li4MgNi3O8,R-3m
1710,0.018532226,"['Li', 'O', 'V']",mp-776871,3,Li2V5O12,Pbcn
1711,0.018575236,"['Li', 'Mn', 'O']",mp-1177178,3,Li9Mn21O40,F222
1712,0.018579856,"['Co', 'Li', 'O']",mp-777836,3,Li14Co13O28,P-1
1713,0.018590258,"['Al', 'Ge', 'Li', 'O']",mp-1020030,4,LiAl(GeO3)2,P2_1/c
1714,0.018597976,"['Cr', 'Li', 'O']",mp-769786,3,Li4CrO4,P-1
1715,0.018623772,"['Li', 'O', 'P', 'Sb']",mp-672958,4,LiSb(PO3)4,Pbcn
1716,0.018624066,"['Li', 'O', 'P', 'V']",mp-1177038,4,Li7V3P8O29,P1
1717,0.01862597,"['Co', 'Li', 'O', 'Sn']",mp-771176,4,Li2CoSnO4,Imma
1718,0.018642091,"['Li', 'O', 'P', 'V']",mp-1176871,4,Li7V3P8O29,P1
1719,0.018642436,"['Cr', 'Li', 'Mn', 'O']",mp-779180,4,Li32Mn3Cr13O48,P1
1720,0.018659747,"['Cu', 'Li', 'Ni', 'O']",mp-849680,4,Li2CuNiO4,I-4m2
1721,0.018660279,"['Cr', 'Li', 'Ni', 'O']",mp-770231,4,Li4Cr3NiO8,P-1
1722,0.018661652,"['Cr', 'Li', 'O']",mp-769772,3,Li2CrO3,C2/m
1723,0.018666742,"['Li', 'Ni', 'O', 'Sn']",mp-765648,4,Li2Ni3SnO8,P4_32_12
1724,0.01869343,"['Li', 'Na', 'Nb', 'O']",mp-1221192,4,Na4LiNb5O15,R3
1725,0.018705681,"['Co', 'Li', 'O', 'Si']",mp-763470,4,Li2CoSiO4,P2_1/c
1726,0.018711381,"['Fe', 'Li', 'O']",mp-771531,3,Li5Fe7O12,C2
1727,0.018718561,"['Li', 'Mn', 'O', 'P']",mp-780911,4,Li2Mn(PO3)4,P2_1/c
1728,0.018732201,"['Li', 'Ni', 'O', 'P']",mp-32383,4,Li2NiP2O7,P1
1729,0.018734453,"['Li', 'O', 'P', 'V']",mp-773637,4,Li6V3P8O29,P1
1730,0.018756122,"['Cu', 'Li', 'O', 'Sb']",mp-1211177,4,Li4CuSbO6,C2/c
1731,0.018760236,"['Cr', 'Li', 'Mn', 'O']",mp-770667,4,Li24MnCr11O36,C2
1732,0.018782871,"['Li', 'Mn', 'O']",mp-1174337,3,Li4Mn3O7,C2/m
1733,0.01878753,"['Fe', 'Li', 'O', 'V']",mp-775461,4,Li2V3FeO8,P4_32_12
1734,0.018795104,"['Li', 'Ni', 'O', 'P']",mp-32320,4,Li4Ni(PO4)2,P2_1/c
1735,0.01879966,"['Cr', 'Li', 'O', 'Si']",mp-763610,4,LiCrSiO4,Pnma
1736,0.018801874,"['Cu', 'Li', 'Ni', 'O']",mp-764381,4,Li4CuNi3O8,C2/m
1737,0.018803597,"['Li', 'O', 'P', 'V']",mp-777029,4,LiV2(PO4)3,P2_1/c
1738,0.018867901,"['Fe', 'Li', 'O']",mp-771402,3,Li5FeO4,P2_1/c
1739,0.018911993,"['Li', 'O', 'P', 'V']",mp-1176866,4,Li7V3P8O29,P1
1740,0.018919645,"['Co', 'Li', 'O', 'P']",mp-540168,4,Li3Co3(PO4)4,P1
1741,0.018940683,"['Cr', 'Li', 'Mn', 'O']",mp-770973,4,Li24MnCr11O36,C2
1742,0.018965379,"['Co', 'Cr', 'Li', 'O']",mp-765438,4,Li3Cr3CoO8,R-3m
1743,0.018988954,"['Li', 'O', 'P', 'V']",mp-540503,4,Li6V3P8O29,Cc
1744,0.019000297,"['Li', 'Mn', 'O']",mp-1100526,3,Li9Mn7O16,P-1
1745,0.019000342,"['Li', 'Mo', 'O', 'P']",mp-695791,4,LiMo(PO3)5,P2_1/c
1746,0.019036552,"['Fe', 'Li', 'O', 'P']",mp-697758,4,LiFeP2O7,P2_1/c
1747,0.01904045,"['Li', 'Mn', 'O']",mp-1100581,3,Li9Mn7O16,P2/m
1748,0.019044244,"['Li', 'Mn', 'O']",mp-1175354,3,Li7Mn5O12,C2/m
1749,0.01904723,"['Cr', 'Li', 'O', 'Ti']",mp-769686,4,Li4TiCrO6,C2/c
1750,0.019047729,"['Li', 'Nb', 'O']",mp-772085,3,LiNb10O18,P2_1/c
1751,0.01906411,"['B', 'Li', 'Mn', 'O']",mp-779028,4,Li7Mn8(BO3)8,P1
1752,0.01907079,"['Li', 'Mn', 'O']",mp-1100497,3,Li9Mn7O16,C2/m
1753,0.019077014,"['Fe', 'Li', 'O', 'Si']",mp-762581,4,LiFeSiO4,Pna2_1
1754,0.01908049,"['Cu', 'Li', 'Mn', 'O']",mp-771741,4,Li2Mn3CuO8,R-3m
1755,0.019108724,"['Li', 'O', 'P', 'V']",mp-1176881,4,Li7V3P8O29,P1
1756,0.019118518,"['Co', 'Li', 'O']",mp-775093,3,Li5CoO4,Aea2
1757,0.019151455,"['Fe', 'Li', 'O', 'P']",mp-765699,4,Li3Fe(PO4)2,P2_1/m
1758,0.019171393,"['Li', 'O', 'P', 'V']",mp-761625,4,Li7V3P8O29,P1
1759,0.01917535,"['Al', 'Fe', 'Li', 'O']",mp-772439,4,Li3AlFeO4,I4_1/a
1760,0.019192774,"['Li', 'Mn', 'O']",mp-1100554,3,Li9Mn7O16,P-1
1761,0.019196542,"['Li', 'Ni', 'O']",mp-767264,3,Li2Ni5O7,C2/m
1762,0.019207445,"['Li', 'Mn', 'O']",mp-1174244,3,Li4Mn3O7,P-1
1763,0.019212357,"['Cr', 'Li', 'O', 'P']",mp-1101532,4,LiCr2(PO4)3,Cc
1764,0.019245035,"['Fe', 'Li', 'Mn', 'O']",mp-763788,4,Li5Mn3(FeO5)2,P-1
1765,0.019249084,"['Cr', 'Li', 'O', 'Ti']",mp-771353,4,Li24Ti5Cr7O36,P1
1766,0.019269776,"['Al', 'Li', 'Ni', 'O']",mp-1222873,4,Li2Al(NiO2)3,C2
1767,0.019274579,"['Cr', 'Li', 'O', 'Ti']",mp-868821,4,Li2TiCr3O8,P4_332
1768,0.019300173,"['Li', 'Ni', 'O']",mp-761436,3,Li7Ni5O12,P-1
1769,0.01934632,"['Li', 'O', 'P', 'V']",mp-773932,4,Li6V3P8O29,P1
1770,0.019358077,"['Fe', 'Li', 'O', 'V']",mp-1178007,4,Li2V3FeO8,P4_3
1771,0.019372336,"['Li', 'Mn', 'O', 'P']",mp-765816,4,Li3Mn(PO4)2,C2/c
1772,0.019388975,"['Li', 'O', 'Ta']",mp-1223302,3,Li7Ta24O64,Pm
1773,0.019392904,"['Co', 'Li', 'Mn', 'O']",mp-1175187,4,Li7Mn4CoO12,P1
1774,0.019406436,"['Li', 'O', 'P', 'V']",mp-764191,4,Li9V3P8O29,P1
1775,0.019413159,"['B', 'Li', 'Mn', 'O']",mp-781628,4,Li7Mn8(BO3)8,P1
1776,0.019415136,"['Li', 'O', 'P', 'V']",mp-773558,4,Li6V3P8O29,P1
1777,0.019443078,"['Li', 'O', 'P', 'V']",mp-1176923,4,Li6V3P8O29,P1
1778,0.019443569,"['Cr', 'Li', 'O']",mp-774032,3,LiCr2O4,P1
1779,0.019450866,"['Cr', 'Li', 'O', 'Ti']",mp-1178390,4,Li32Ti5Cr11O48,P1
1780,0.01945413,"['B', 'Li', 'Mn', 'O']",mp-779303,4,Li7Mn8(BO3)8,P1
1781,0.01949502,"['Li', 'Mn', 'O', 'P']",mp-761599,4,Li4MnP2O9,C2/m
1782,0.019508876,"['B', 'Li', 'Mn', 'O']",mp-777671,4,Li7Mn8(BO3)8,P1
1783,0.019524354,"['Li', 'Ni', 'O', 'P']",mp-32395,4,Li2Ni3(P2O7)2,P-1
1784,0.019559306,"['Li', 'O', 'P', 'V']",mp-1176918,4,Li6V3P8O29,P1
1785,0.019584259,"['Li', 'O', 'P', 'V']",mp-1176863,4,Li7V3P8O29,P1
1786,0.019591398,"['Li', 'O', 'Ti', 'V']",mp-774128,4,Li2TiV3O8,R-3m
1787,0.019630931,"['Li', 'Mn', 'O', 'Sn']",mp-771490,4,Li5Mn5(SnO6)2,C2
1788,0.01964665,"['B', 'Li', 'Mn', 'O']",mp-779296,4,Li7Mn8(BO3)8,P1
1789,0.019662421,"['Li', 'Mg', 'Mn', 'O']",mp-771629,4,Li2MgMn3O8,R-3m
1790,0.019667328,"['B', 'Li', 'Mn', 'O']",mp-850775,4,Li7Mn8(BO3)8,P1
1791,0.019678638,"['Fe', 'Li', 'O', 'Ti']",mp-765709,4,Li5Ti2Fe3O10,P-1
1792,0.019680807,"['Li', 'O', 'P', 'Sn']",mp-773129,4,LiSn2(PO4)3,Pca2_1
1793,0.019688051,"['Li', 'Mn', 'Ni', 'O']",mp-762583,4,Li3MnNi3O8,C2/m
1794,0.019705422,"['Li', 'Nb', 'Ni', 'O']",mp-779181,4,LiNbNiO4,P4_322
1795,0.019707518,"['Li', 'Mn', 'O']",mp-1100514,3,Li9Mn7O16,P-1
1796,0.019709327,"['Li', 'Mn', 'O', 'Si']",mp-768020,4,Li2MnSiO4,Pna2_1
1797,0.019717193,"['Li', 'O', 'P', 'Sn']",mp-26649,4,Li2SnP2O7,P-1
1798,0.019723763,"['Li', 'Mn', 'O', 'P']",mp-1177043,4,Li7Mn4(P2O7)4,Pc
1799,0.019724709,"['Li', 'O', 'P', 'V']",mp-1176914,4,Li6V3P8O29,P1
1800,0.019733345,"['Li', 'Mn', 'O']",mp-1174288,3,Li4Mn3O7,P-1
1801,0.019760591,"['Li', 'Mn', 'O']",mp-1173962,3,Li3Mn2O5,P-1
1802,0.019772256,"['Li', 'O', 'P', 'V']",mp-1176897,4,Li7V3P8O29,C2/c
1803,0.019775948,"['Li', 'O', 'Si']",mp-1223129,3,Li4SiO4,P2_1
1804,0.019777257,"['Co', 'Li', 'O', 'Si']",mp-763512,4,Li2CoSiO4,P2_1/c
1805,0.019784629,"['Li', 'O', 'Si', 'V']",mp-767049,4,LiVSiO4,Pnma
1806,0.019795256,"['Li', 'O', 'P', 'V']",mp-773531,4,Li6V3P8O29,P-1
1807,0.019795894,"['Li', 'Mn', 'O']",mp-868928,3,Li6Mn9O20,C2/m
1808,0.019806669,"['Li', 'V', 'O']",mp-774192,3,Li2VO3,P-1
1809,0.019832106,"['Li', 'Ni', 'O', 'Sn']",mp-773418,4,Li2NiSnO4,I-4m2
1810,0.019833355,"['Li', 'Mg', 'O', 'Si']",mp-561336,4,Li2Mg2Si4O11,P-1
1811,0.019844398,"['Li', 'O', 'P', 'V']",mp-1176908,4,Li6V3P8O29,P1
1812,0.019848819,"['Li', 'Ni', 'O', 'Sb']",mp-774126,4,Li3Ni4SbO8,C2/m
1813,0.019858952,"['Li', 'O', 'Sn', 'V']",mp-774164,4,Li2V3SnO8,P4_32_12
1814,0.019860755,"['Li', 'Na', 'O', 'Ti']",mp-774609,4,Na5Li3Ti5O14,P1
1815,0.019909166,"['Li', 'O', 'P', 'V']",mp-1177041,4,Li6V3P8O29,P1
1816,0.01992231,"['Li', 'O', 'P', 'V']",mp-1176850,4,Li7V3P8O29,P1
1817,0.019923043,"['Li', 'Mn', 'O']",mp-25542,3,LiMnO2,Cm
1818,0.019931007,"['Li', 'Mn', 'O']",mp-1100505,3,Li9Mn7O16,C2/m
1819,0.019935581,"['C', 'Cu', 'Li', 'O']",mp-753403,4,LiCu2(CO3)2,P-1
1820,0.019948696,"['Li', 'Mn', 'O']",mp-1100499,3,Li9Mn7O16,C2/m
1821,0.019950768,"['B', 'Li', 'Mn', 'O']",mp-778694,4,Li7Mn8(BO3)8,P1
1822,0.019952409,"['Li', 'Fe', 'O']",mp-763300,3,LiFeO2,Pmmn
1823,0.019965351,"['Li', 'O', 'P', 'Sn']",mp-26271,4,Li2Sn(PO3)4,P2_1/c
1824,0.019975919,"['Li', 'Nb', 'O']",mp-3368,3,LiNb3O8,P2_1/c
1825,0.019989449,"['La', 'Li', 'O', 'Ti']",mp-9406,4,Li2La2Ti3O10,I4/mmm
1826,0.019990215,"['Al', 'Li', 'Mg', 'O']",mp-1036537,4,LiMg14AlO16,Pmmm
1827,0.020008553,"['Fe', 'Li', 'O', 'Si']",mp-767027,4,Li4FeSi2O7,C2
1828,0.02001509,"['Li', 'Mn', 'O']",mp-691123,3,Li7Mn10O24,C2
1829,0.020025121,"['B', 'Li', 'Mn', 'O']",mp-778813,4,Li7Mn8(BO3)8,P1
1830,0.02002532,"['Fe', 'Li', 'O']",mp-780192,3,Li5FeO4,P1