,e_above_hull,elements,material_id,nelements,pretty_formula,spacegroup.symbol
350,0,"['Li', 'Mn', 'O', 'V']",mp-19107,4,LiMnVO4,Cmcm
351,0,"['K', 'Li', 'O', 'V']",mp-566084,4,K2LiVO4,C2/m
352,0,"['Li', 'O', 'Ti']",mp-766823,3,Li7Ti11O24,C2/m
353,0,"['Ge', 'Li', 'O', 'V']",mp-566658,4,LiV(GeO3)2,P2_1/c
354,0,"['Li', 'O', 'V', 'Zn']",mp-1222477,4,LiVZnO4,R3
355,0,"['Li', 'O', 'P', 'V']",mp-540015,4,LiV2P5O16,Pc
356,0,"['Li', 'O', 'P', 'V']",mp-504366,4,Li9V3P8O29,P-3c1
357,0,"['Li', 'O', 'P', 'V']",mp-32492,4,LiV(PO3)4,Pbcn
358,0,"['Li', 'Ti', 'O']",mp-5670,3,LiTi2O4,Fd-3m
359,0,"['Li', 'Ti', 'O']",mp-685194,3,Li4Ti5O12,C2/c
360,0,"['Li', 'O', 'P', 'V']",mp-32427,4,LiVPO5,Pnma
361,0,"['Li', 'Ti', 'O']",mp-2931,3,Li2TiO3,C2/c
362,0,"['Li', 'O', 'P', 'V']",mp-32419,4,LiV2(PO4)3,R-3c
363,0,"['Li', 'O', 'P', 'V']",mp-32405,4,LiVP2O7,C2
364,0,"['Li', 'O', 'P', 'V']",mp-19615,4,Li3V2(PO4)3,P2_1/c
365,0,"['Li', 'O', 'P', 'V']",mp-18911,4,LiVP2O7,P2_1
366,0,"['Eu', 'Ir', 'Li', 'O']",mp-11903,4,LiEu2IrO6,P2_1/c
367,0,"['Li', 'Ti', 'O']",mp-9172,3,Li4TiO4,Cmcm
368,0,"['Li', 'O']",mp-1960,2,Li2O,Fm-3m
369,0,"['Li', 'O', 'P', 'V']",mp-849522,4,Li8V3P8O29,Cc
370,0,"['Ba', 'Li', 'O', 'Ti']",mp-558083,4,BaLi2Ti6O14,Cmce
371,0,"['Cr', 'Li', 'O', 'V']",mp-776615,4,Li4VCr3O8,P2/m
372,0,"['Li', 'Ni', 'O', 'Sn']",mp-770127,4,Li4Ni3Sn5O16,P1
373,0,"['Li', 'Nd', 'O', 'Ru']",mp-1211080,4,LiNd2RuO6,P2_1/c
374,0,"['B', 'Li', 'Nd', 'O']",mp-1211241,4,LiNd6B3O14,P2_1/c
375,0,"['B', 'Li', 'Nd', 'O']",mp-1198049,4,Li6Nd(BO3)3,P2_1/c
376,0,"['Fe', 'Li', 'O', 'Ti']",mp-769637,4,Li5Ti6FeO16,P2_1
377,0,"['Li', 'N', 'Nd', 'O']",mp-1211215,4,Li2Nd(NO3)5,Pnnm
378,0,"['Fe', 'Li', 'O', 'Ti']",mp-1177863,4,Li2Ti3FeO8,P2_13
379,0,"['H', 'Li', 'O', 'Sn']",mp-1195757,4,Li2Sn(H5O4)2,P2_1/c
380,0,"['Cs', 'H', 'Li', 'O']",mp-697181,4,CsLi2(HO)3,P2_1/m
381,0,"['As', 'H', 'Li', 'O']",mp-1203059,4,LiAs3H2O9,P2_1/c
382,0,"['As', 'H', 'Li', 'O']",mp-1192746,4,LiAs2H3O7,C2/m
383,0,"['H', 'Li', 'O', 'P']",mp-24610,4,LiP(HO2)2,Pna2_1
384,0,"['Li', 'Mg', 'O', 'V']",mp-565332,4,LiMg4V3O12,I-42d
385,0,"['Li', 'Mg', 'O', 'V']",mp-569876,4,LiMgVO4,Cmcm
386,0,"['Li', 'O', 'Sb', 'V']",mp-772006,4,Li2V3SbO8,R-3m
387,0,"['Cr', 'Li', 'O', 'V']",mp-776143,4,Li4V3CrO8,C2/m
388,0,"['B', 'H', 'Li', 'O']",mp-1199091,4,Li3B5(HO5)2,P4_32_12
389,0,"['B', 'H', 'Li', 'O']",mp-740714,4,LiB5H2O9,P2_1/c
390,0,"['Li', 'Ni', 'O', 'V']",mp-771631,4,LiVNiO4,Imma
391,0,"['Li', 'O', 'Rb', 'V']",mp-19123,4,Rb2LiVO4,Cmc2_1
392,0,"['Li', 'Ti', 'O']",mp-38280,3,LiTiO2,I4_1/amd
393,0,"['Ba', 'Li', 'Re', 'O']",mp-6270,4,Ba2LiReO6,Fm-3m
394,0,"['Li', 'Mo', 'Na', 'O']",mp-1195001,4,Na5Li(Mo3O10)3,Fdd2
395,0,"['Fe', 'Li', 'Na', 'O']",mp-560846,4,Na2Li3FeO4,Pnnm
396,0,"['Cs', 'Li', 'Mo', 'O']",mp-561689,4,CsLiMoO4,F-43m
397,0,"['Li', 'Mo', 'O', 'Rb']",mp-566323,4,RbLiMoO4,Cc
398,0,"['Li', 'O', 'Sn', 'V']",mp-850968,4,LiVSnO4,Imma
399,0,"['Fe', 'Li', 'Mo', 'O']",mp-31773,4,Li2Fe2(MoO4)3,Pbcn
400,0,"['Li', 'O', 'Sn', 'V']",mp-776870,4,Li2V3SnO8,Cc
401,0,"['Cs', 'Li', 'O', 'V']",mp-541190,4,Cs2LiVO4,Cmc2_1
402,0,"['Li', 'Na', 'O', 'V']",mp-1221048,4,NaLiV2O6,C2/c
403,0,"['B', 'H', 'Li', 'O']",mp-698205,4,LiB(HO2)2,P2_1/c
404,0,"['Li', 'Mg', 'O', 'Si']",mp-11189,4,Li2MgSiO4,P2_1/c
405,0,"['Li', 'O', 'Sb']",mp-5769,3,Li3SbO4,P2/c
406,0,"['Li', 'O', 'Sb']",mp-29892,3,LiSb3O8,P2_1/c
407,0,"['Li', 'O', 'W', 'Yb']",mp-19104,4,LiYb(WO4)2,P2/c
408,0,"['Li', 'O', 'W', 'Yb']",mp-1180482,4,LiYb(WO4)2,P2/c
409,0,"['Dy', 'Li', 'O', 'W']",mp-1192153,4,LiDy(WO4)2,P2/c
410,0,"['Ba', 'Li', 'O', 'W']",mp-566745,4,Ba5Li2(WO5)3,P6_3mc
411,0,"['Ho', 'Li', 'O', 'W']",mp-1191729,4,LiHo(WO4)2,P2/c
412,0,"['Li', 'O', 'Tm', 'W']",mp-1210997,4,LiTm(WO4)2,P2/c
413,0,"['Li', 'Ni', 'O', 'W']",mp-566900,4,Li2Ni(WO4)2,P-1
414,0,"['B', 'Li', 'O', 'Sc']",mp-557012,4,Li3Sc(BO3)2,P2_1/c
415,0,"['Li', 'Lu', 'O', 'W']",mp-1190882,4,LiLu(WO4)2,P2/c
416,0,"['Eu', 'Li', 'O', 'W']",mp-1212166,4,LiEu(WO4)2,P2/c
417,0,"['Fe', 'Li', 'O', 'W']",mp-19682,4,LiFe(WO4)2,C2/c
418,0,"['Cr', 'Li', 'O']",mp-772487,3,LiCrO2,Fd-3m
419,0,"['Cr', 'Li', 'O']",mp-770632,3,Li3CrO4,Pmn2_1
420,0,"['B', 'Li', 'O', 'Sm']",mp-1211144,4,LiSm6B3O14,P2_1/c
421,0,"['Fe', 'Li', 'O', 'W']",mp-1210849,4,Li2Fe(WO4)2,P-1
422,0,"['B', 'Li', 'O', 'Sm']",mp-1211541,4,Li6Sm(BO3)3,P2_1/c
423,0,"['Ir', 'Li', 'O', 'Pr']",mp-11906,4,LiPr2IrO6,P2_1/c
424,0,"['Er', 'Li', 'O', 'W']",mp-1192111,4,LiEr(WO4)2,P2/c
425,0,"['Al', 'Li', 'O', 'Si']",mp-18220,4,LiAlSiO4,R3
426,0,"['Al', 'Li', 'O', 'Si']",mp-6442,4,LiAl(Si2O5)2,P2/c
427,0,"['Al', 'Li', 'O', 'Si']",mp-1020023,4,Li3AlSiO5,Pna2_1
428,0,"['B', 'Er', 'Li', 'O']",mp-1211468,4,Li6Er(BO3)3,P2_1/c
429,0,"['Fe', 'Li', 'O', 'Sb']",mp-772280,4,Li2Fe3SbO8,P6_3mc
430,0,"['Li', 'Ti', 'P', 'O']",mp-6668,4,LiTiPO5,Pnma
431,0,"['Li', 'Ni', 'O', 'Sb']",mp-769961,4,Li4Ni3SbO8,R-3m
432,0,"['Li', 'O', 'P', 'Ti']",mp-18640,4,LiTi2(PO4)3,R-3c
433,0,"['Li', 'Ni', 'O', 'Sb']",mp-771861,4,LiNiSbO4,Imma
434,0,"['Li', 'O', 'Ti', 'Zn']",mp-774797,4,Li2Ti3ZnO8,P2_13
435,0,"['Li', 'O', 'Ti', 'Zn']",mp-759849,4,Li2Ti6Zn3O16,P2_1
436,0,"['Cr', 'Li', 'O']",mp-24920,3,Li2CrO4,R-3
437,0,"['Li', 'O', 'Tb', 'W']",mp-1211005,4,LiTb(WO4)2,P2/c
438,0,"['Gd', 'Li', 'O', 'W']",mp-1210920,4,LiGd(WO4)2,P2/c
439,0,"['Cs', 'Li', 'O', 'W']",mp-1178391,4,CsLiWO4,I-4
440,0,"['Li', 'O', 'Ta']",mp-3151,3,Li3TaO4,C2/c
441,0,"['B', 'Li', 'O', 'Pr']",mp-13772,4,Li3Pr2(BO3)3,P2_1/c
442,0,"['Li', 'Mn', 'Fe', 'O']",mp-765828,4,LiMnFeO4,Imma
443,0,"['Cr', 'Li', 'O', 'Ti']",mp-769567,4,Li10Ti11Cr9O40,P-1
444,0,"['In', 'Li', 'O']",mp-5488,3,LiInO2,I4_1/amd
445,0,"['B', 'Li', 'Mn', 'O']",mp-19131,4,LiMnBO3,P-6
446,0,"['Cr', 'Li', 'O', 'Ti']",mp-771738,4,LiTiCrO4,Imma
447,0,"['B', 'Li', 'Mn', 'O']",mp-850971,4,LiMnBO3,Cc
448,0,"['Li', 'O', 'Os', 'Pr']",mp-12449,4,LiPr2OsO6,P2_1/c
449,0,"['As', 'Li', 'O']",mp-9197,3,Li3AsO4,Pmn2_1
450,0,"['As', 'Li', 'O']",mp-9657,3,LiAsO3,R-3
451,0,"['Li', 'O', 'Zn']",mp-3297,3,Li10Zn4O9,P4_2/nmc
452,0,"['Li', 'O', 'Zn']",mp-14495,3,Li6ZnO4,P4_2/nmc
453,0,"['B', 'Li', 'O', 'Y']",mp-14704,4,Li6Y(BO3)3,P2_1/c
454,0,"['Co', 'Li', 'O', 'Si']",mp-763301,4,Li2CoSiO4,Pc
455,0,"['B', 'K', 'Li', 'O']",mp-557632,4,K2LiBO3,C2
456,0,"['Hf', 'Li', 'O']",mp-772185,3,Li6Hf2O7,C2/c
457,0,"['B', 'K', 'Li', 'O']",mp-558628,4,KLi2BO3,Pnma
458,0,"['Li', 'Hf', 'O']",mp-755352,3,Li2HfO3,C2/c
459,0,"['B', 'K', 'Li', 'O']",mp-6648,4,KLiB4O7,P2_12_12_1
460,0,"['Li', 'P', 'O']",mp-13725,3,Li3PO4,Pmn2_1
461,0,"['Li', 'O', 'P']",mp-554577,3,Li4P2O7,P2_1/c
462,0,"['B', 'Cd', 'Li', 'O']",mp-6126,4,LiCdBO3,P-6
463,0,"['Li', 'O', 'P']",mp-29195,3,LiPO3,P2_1/c
464,0,"['Ba', 'Li', 'Os', 'O']",mp-10584,4,Ba2LiOsO6,Fm-3m
465,0,"['B', 'Li', 'O', 'P']",mp-1020015,4,Li2B3PO8,P-1
466,0,"['Li', 'O', 'Pr', 'W']",mp-18932,4,LiPr(WO4)2,P-1
467,0,"['Co', 'Li', 'O', 'W']",mp-556321,4,Li2Co(WO4)2,P-1
468,0,"['Li', 'Na', 'O', 'W']",mp-566232,4,Na3LiWO5,P-1
469,0,"['Li', 'Cr', 'O']",mp-18793,3,LiCrO2,R-3m
470,0,"['Ba', 'Li', 'O', 'Os']",mp-542207,4,Ba3LiOs2O9,P6_3/mmc
471,0,"['Ba', 'Li', 'O', 'Sb']",mp-7971,4,Ba4Li(SbO4)3,Im-3m
472,0,"['Fe', 'Li', 'O', 'Sb']",mp-775082,4,Li3Fe4SbO8,C2/m
473,0,"['Li', 'O', 'Ru']",mp-37692,3,Li3RuO4,P2/c
474,0,"['Li', 'N', 'O', 'Yb']",mp-1212254,4,Li3Yb(NO3)6,P2_1/c
475,0,"['Li', 'N', 'O', 'Tb']",mp-1212130,4,Li3Tb(NO3)6,P2_1/c
476,0,"['Li', 'Ru', 'O']",mp-4630,3,Li2RuO3,C2/m
477,0,"['Gd', 'Li', 'N', 'O']",mp-1212476,4,Li3Gd(NO3)6,P2_1/c
478,0,"['Fe', 'Li', 'O', 'Si']",mp-764790,4,Li2FeSiO4,Pnma
479,0,"['Li', 'Cu', 'O']",mp-9158,3,LiCuO2,C2/m
480,0,"['Li', 'N', 'O', 'Si']",mp-6015,4,LiSiNO,Pca2_1
481,0,"['Li', 'N', 'O', 'Pr']",mp-555979,4,Li2Pr(NO3)5,Pnnm
482,0,"['Li', 'O', 'Si', 'Ti']",mp-6332,4,Li2TiSiO5,P4/nmm
483,0,"['Li', 'N', 'O', 'Y']",mp-1212171,4,Li3Y(NO3)6,P2_1/c
484,0,"['Li', 'Ce', 'O']",mp-754534,3,Li2CeO3,Cmmm
485,0,"['Li', 'O', 'Pb', 'Ti']",mp-558619,4,Li2Ti6PbO14,Cmce
486,0,"['Ge', 'Li', 'O', 'Ti']",mp-13182,4,Li2TiGeO5,P4/nmm
487,0,"['Li', 'N', 'O', 'Ta']",mp-14871,4,Li16Ta2N8O,R-3
488,0,"['Eu', 'Li', 'O', 'Si']",mp-14629,4,Li2EuSiO4,P3_121
489,0,"['Li', 'P', 'N', 'O']",mp-1020019,4,Li2PNO2,Cmc2_1
490,0,"['Li', 'B', 'O']",mp-16828,3,Li3B7O12,P-1
491,0,"['Li', 'P', 'N', 'O']",mp-1020011,4,Li14P2(N2O)3,P-3
492,0,"['Li', 'N', 'O', 'Sm']",mp-1211322,4,Li2Sm(NO3)5,Pnnm
493,0,"['Li', 'B', 'O']",mp-3635,3,LiBO2,P2_1/c
494,0,"['Li', 'B', 'O']",mp-27275,3,Li3BO3,P2_1/c
495,0,"['Co', 'Li', 'O', 'Ti']",mp-768110,4,Li2Ti3CoO8,P2_13
496,0,"['B', 'Li', 'O']",mp-1020024,3,Li6B4O9,P2_1/c
497,0,"['B', 'Li', 'O']",mp-1020014,3,Li3B11O18,P2_1/c
498,0,"['La', 'Li', 'N', 'O']",mp-1211252,4,Li2La(NO3)5,Pnnm
499,0,"['Er', 'Li', 'N', 'O']",mp-559129,4,Li3Er(NO3)6,P2_1/c
500,0,"['Cs', 'Li', 'O', 'Ti']",mp-8294,4,Cs2Li2TiO4,P-1
501,0,"['Er', 'Li', 'O']",mp-10970,3,LiErO2,P2_1/c
502,0,"['Ge', 'Li', 'Mg', 'O']",mp-1210797,4,Li2MgGeO4,Pmn2_1
503,0,"['Li', 'Sb', 'O']",mp-29364,3,Li5SbO5,C2/m
504,0,"['Li', 'B', 'O']",mp-4779,3,Li2B4O7,I4_1cd
505,0,"['Li', 'O', 'Si', 'Tm']",mp-15066,4,LiTmSiO4,Pnma
506,0,"['Li', 'O', 'W']",mp-566981,3,Li4WO5,P-1
507,0,"['Li', 'O', 'Rb', 'Si']",mp-554752,4,RbLi7(SiO4)2,C2/m
508,0,"['Ba', 'Li', 'O', 'Si']",mp-558310,4,BaLi2SiO4,P6_3cm
509,0,"['Li', 'Lu', 'N', 'O']",mp-1212270,4,Li3Lu(NO3)6,P2_1/c
510,0,"['Cr', 'Li', 'O', 'Sb']",mp-775393,4,Li2Cr3SbO8,P4_332
511,0,"['Li', 'Cu', 'O']",mp-5127,3,LiCuO,I4/mmm
512,0,"['Li', 'Cu', 'O']",mp-4711,3,Li2CuO2,Immm
513,0,"['Li', 'O', 'P', 'Sb']",mp-504353,4,LiSb(PO3)4,C2/c
514,0,"['Li', 'Sc', 'O']",mp-5840,3,LiScO2,I4_1/amd
515,0,"['Li', 'Mn', 'O', 'Sb']",mp-763186,4,Li2Mn3SbO8,P31c
516,0,"['Li', 'O', 'Zr']",mp-5418,3,Li6Zr2O7,C2/c
517,0,"['Li', 'Mn', 'O', 'Sb']",mp-778396,4,LiMnSbO4,P4_322
518,0,"['Co', 'Li', 'O', 'Sb']",mp-773544,4,LiCoSbO4,Imma
519,0,"['Li', 'Zr', 'O']",mp-4156,3,Li2ZrO3,C2/c
520,0,"['Li', 'Mn', 'O', 'Ti']",mp-775865,4,Li2Ti3MnO8,P2_13
521,0,"['As', 'Li', 'O', 'Ti']",mp-6113,4,LiTiAsO5,Pnma
522,0,"['Co', 'Li', 'O', 'Sb']",mp-762045,4,Li2Co3SbO8,P4_332
523,0,"['Li', 'Cu', 'O']",mp-19970,3,Li3CuO3,P4_2/mnm
524,0,"['Dy', 'Li', 'N', 'O']",mp-1211772,4,Li3Dy(NO3)6,P2_1/c
525,0,"['Li', 'N', 'O', 'Tm']",mp-1212059,4,Li3Tm(NO3)6,P2_1/c
526,0,"['Be', 'Li', 'O', 'Si']",mp-8070,4,Li2BeSiO4,Pc
527,0,"['Li', 'O', 'Rb', 'Si']",mp-8449,4,Rb2Li2SiO4,P-1
528,0,"['Cs', 'Li', 'O', 'Si']",mp-562394,4,Cs4Li2(Si2O5)3,P2_1/m
529,0,"['Cs', 'Li', 'O', 'Si']",mp-504849,4,Cs2Li2SiO4,P-1
530,0,"['Li', 'Na', 'O', 'Si']",mp-559904,4,NaLi3SiO4,I4_1/a
531,0,"['Li', 'N', 'Nb', 'O']",mp-6031,4,Li16Nb2N8O,R-3
532,1.50E-05,"['Ge', 'Li', 'O']",mp-7998,3,Li2Ge2O5,Ccc2
533,1.88E-05,"['Cr', 'Li', 'O', 'P']",mp-504356,4,LiCr4(PO4)3,Pnma
534,2.13E-05,"['Li', 'O', 'P']",mp-28450,3,Li4P2O7,P-1
535,2.19E-05,"['Li', 'O', 'Si', 'V']",mp-766728,4,LiV(SiO3)2,Pbca
536,2.56E-05,"['Co', 'Li', 'O', 'P']",mp-31583,4,LiCo(PO3)3,P2_12_12_1
537,3.15E-05,"['C', 'Li', 'Na', 'O']",mp-556783,4,NaLiCO3,P1
538,6.22E-05,"['Cr', 'Li', 'O', 'Si']",mp-868281,4,Li2Cr5(Si2O7)2,P-1
539,6.30E-05,"['Cr', 'Li', 'O', 'V']",mp-776618,4,Li4VCr3O8,C2/m
540,6.76E-05,"['Li', 'O', 'Sb']",mp-4995,3,LiSbO3,Pnna
541,7.75E-05,"['B', 'Co', 'Li', 'O']",mp-769828,4,LiCoBO3,P-1
542,9.15E-05,"['Au', 'Li', 'O']",mp-757242,3,Li5AuO4,Fddd
543,9.61E-05,"['B', 'H', 'Li', 'O']",mp-707105,4,Li3B5(HO5)2,P4_12_12
544,9.72E-05,"['Li', 'Si', 'B', 'O']",mp-8874,4,LiSiBO4,I-4
545,0.000104122,"['Cr', 'Fe', 'Li', 'O']",mp-770076,4,Li4CrFe3O8,P-1
546,0.000122406,"['Cr', 'Li', 'O', 'Ti']",mp-775469,4,Li6Ti7Cr5O24,P-1
547,0.000128165,"['B', 'Ca', 'Li', 'O']",mp-561237,4,LiCaBO3,Pbca
548,0.000137078,"['Li', 'O', 'Rh', 'Ti']",mp-1222352,4,LiTiRhO4,Imma
549,0.000147584,"['C', 'Li', 'Na', 'O']",mp-557375,4,NaLiCO3,P-6
550,0.000156701,"['B', 'Li', 'Mn', 'O']",mp-849500,4,LiMnBO3,P2_1/c
551,0.000176042,"['B', 'Ba', 'Li', 'O']",mp-558890,4,BaLi(B3O5)3,R-3c
552,0.000188068,"['Cr', 'Fe', 'Li', 'O']",mp-771082,4,Li4CrFe3O8,P-1
553,0.000215121,"['B', 'Fe', 'Li', 'O']",mp-773213,4,Li3Fe(BO3)2,P2_1/c
554,0.000216299,"['Cr', 'Li', 'O', 'P']",mp-1223201,4,LiCr4(PO4)3,P2_12_12_1
555,0.000237719,"['Cr', 'Li', 'O', 'Rb']",mp-19251,4,RbLiCrO4,P6_3
556,0.000254326,"['Fe', 'Li', 'Mn', 'O']",mp-771651,4,Li8Mn13Fe3O32,P-1
557,0.000260179,"['Li', 'O', 'Re']",mp-554540,3,Li5ReO6,P3_112
558,0.000279599,"['B', 'Li', 'Mn', 'O']",mp-769813,4,LiMnBO3,P-1
559,0.000313327,"['Li', 'Ni', 'O', 'P']",mp-779070,4,Li2NiP2O7,P2_1
560,0.000315194,"['Cu', 'Li', 'O', 'P']",mp-26262,4,LiCu(PO3)4,Cc
561,0.000373086,"['K', 'Li', 'Mo', 'O']",mp-1211965,4,KLiMoO4,P2_1/c
562,0.000417025,"['Cr', 'Fe', 'Li', 'O']",mp-773312,4,Li3Cr2FeO6,C2/m
563,0.000428353,"['Li', 'Mg', 'O', 'Ti']",mp-1222757,4,Li2MgTi9O20,Pm
564,0.000430354,"['Cd', 'Li', 'O', 'P']",mp-556786,4,LiCdPO4,Pna2_1
565,0.000430691,"['Li', 'O', 'P', 'Zn']",mp-652479,4,LiZnPO4,Cc
566,0.000435907,"['Cr', 'Fe', 'Li', 'O']",mp-770230,4,Li4CrFe3O8,P-1
567,0.000459328,"['Fe', 'Li', 'O', 'Sb']",mp-776869,4,LiFeSbO4,Imma
568,0.000483211,"['H', 'Li', 'O']",mp-625211,3,LiH3O2,P-1
569,0.000487916,"['Cr', 'Fe', 'Li', 'O']",mp-770145,4,Li4CrFe3O8,P-1
570,0.000492379,"['Li', 'Na', 'O', 'Ti']",mp-555420,4,NaLiTi3O7,Cmce
571,0.000505903,"['Cr', 'Fe', 'Li', 'O']",mp-771661,4,Li3Cr(FeO3)2,C2/m
572,0.000506164,"['Li', 'Mn', 'Si', 'O']",mp-566680,4,Li2MnSiO4,Pmn2_1
573,0.000516285,"['Cd', 'Li', 'O', 'P']",mp-9018,4,LiCdPO4,Pnma
574,0.000533977,"['Li', 'O', 'Ta']",mp-558294,3,Li3TaO4,P2/c
575,0.000556332,"['Co', 'Li', 'Ni', 'O']",mp-769507,4,Li10CoNi9O20,P2/m
576,0.000561831,"['Co', 'Li', 'O', 'V']",mp-762378,4,Li2V3CoO8,R3
577,0.000585914,"['Li', 'Zr', 'O']",mp-755225,3,Li8ZrO6,R-3
578,0.000589712,"['Li', 'O', 'Sb', 'V']",mp-849570,4,Li2V3SbO8,P4_332
579,0.000624915,"['Cr', 'Li', 'O', 'W']",mp-1191127,4,LiCr(WO4)2,C2/c
580,0.000647695,"['Li', 'O', 'P']",mp-557189,3,LiPO3,P2/c
581,0.000652404,"['Co', 'Li', 'O', 'P']",mp-1176798,4,LiCoPO4,Cc
582,0.000672402,"['Li', 'O', 'P', 'Zn']",mp-557756,4,Li4Zn(PO4)2,P2_1/c
583,0.00068626,"['H', 'Li', 'O', 'P']",mp-23931,4,LiPH2O3,Pna2_1
584,0.000691199,"['Li', 'Mo', 'O', 'P']",mp-540310,4,Li2Mo(PO3)5,P2_1/m
585,0.000705717,"['Li', 'O', 'P', 'W']",mp-763403,4,LiP4WO13,P2_12_12_1
586,0.000737965,"['Li', 'O', 'Ti']",mp-766393,3,Li7Ti11O24,C2/m
587,0.000744232,"['Cr', 'Fe', 'Li', 'O']",mp-769742,4,Li4CrFe3O8,P2/m
588,0.000748424,"['Li', 'O', 'P', 'V']",mp-849384,4,Li11V8(PO4)12,P1
589,0.000761201,"['Li', 'O', 'P', 'V']",mp-1101493,4,LiV2(PO4)3,C2/c
590,0.000770814,"['Cr', 'Fe', 'Li', 'O']",mp-769753,4,Li4CrFe3O8,C2/m
591,0.000770988,"['Cr', 'Fe', 'Li', 'O']",mp-770185,4,Li4CrFe3O8,P-1
592,0.000828995,"['Fe', 'Li', 'O', 'P']",mp-19430,4,Li3Fe2(PO4)3,R-3
593,0.000835947,"['Cr', 'Li', 'O', 'V']",mp-853146,4,Li4VCr3O8,R-3m
594,0.000843501,"['Li', 'Mn', 'O', 'P']",mp-19492,4,LiMn(PO3)3,P2_12_12_1
595,0.000863104,"['As', 'Li', 'Ni', 'O']",mp-25613,4,LiNiAsO4,Pnma
596,0.000887103,"['Cr', 'Fe', 'Li', 'O']",mp-771065,4,Li4CrFe3O8,P-1
597,0.000894863,"['Li', 'O', 'P']",mp-1202801,3,LiPO3,Pc
598,0.000935878,"['Co', 'Fe', 'Li', 'O']",mp-761944,4,Li2FeCo3O8,P1
599,0.000949347,"['Li', 'O', 'Pb']",mp-22538,3,Li8PbO6,R-3
600,0.000959064,"['La', 'Li', 'Mn', 'O']",mp-1222623,4,LiLa3MnO7,P2_1/m
601,0.000965348,"['Fe', 'Li', 'O']",mp-1176882,3,Li7Fe5O12,C2
602,0.000982142,"['Li', 'Mn', 'O']",mp-775236,3,LiMnO2,C2/m
603,0.000995901,"['Li', 'O', 'Si']",mp-559848,3,Li4SiO4,P2_1/m
604,0.001017104,"['Fe', 'Li', 'O', 'P']",mp-19570,4,Li3Fe2(PO4)3,P2_1/c
605,0.001059527,"['Cr', 'Fe', 'Li', 'O']",mp-769992,4,Li2CrFeO4,P-1
606,0.00108947,"['Li', 'O', 'P']",mp-2878,3,Li3PO4,Pnma
607,0.001119155,"['Li', 'Ni', 'O', 'P']",mp-763217,4,LiNiPO4,P2_1
608,0.001129532,"['Cr', 'Fe', 'Li', 'O']",mp-769996,4,Li4CrFe3O8,C2/m
609,0.0011308,"['Ge', 'Li', 'O', 'Ta']",mp-1222344,4,LiTaGeO5,Cc
610,0.001136408,"['Li', 'Mg', 'O', 'Si']",mp-1222742,4,Li2MgSiO4,Pna2_1
611,0.001137978,"['B', 'Fe', 'Li', 'O']",mp-777711,4,LiFeBO3,Cc
612,0.00116468,"['Li', 'Mo', 'O']",mp-1202737,3,Li2MoO4,P3_2
613,0.001164853,"['Li', 'O', 'P', 'Zn']",mp-559934,4,LiZnPO4,Pna2_1
614,0.001168341,"['Li', 'Ni', 'O']",mp-767992,3,LiNi2O3,C2/c
615,0.001178248,"['Fe', 'Li', 'O', 'Sn']",mp-771096,4,LiFeSnO4,Imma
616,0.001180159,"['Li', 'O', 'P', 'Sc']",mp-774742,4,Li3Sc2(PO4)3,P2_1/c
617,0.001181551,"['Ba', 'Li', 'Nb', 'O']",mp-774715,4,Ba4LiNb3O12,Pnma
618,0.001206874,"['Cr', 'Fe', 'Li', 'O']",mp-770020,4,Li2CrFeO4,C2/m
619,0.00120813,"['B', 'Li', 'Mn', 'O']",mp-1222860,4,Li7Mn(BO3)3,P-1
620,0.001215422,"['Li', 'O', 'P', 'Ti']",mp-25840,4,LiTi2(PO4)3,P2_1/c
621,0.001217078,"['B', 'H', 'Li', 'O']",mp-23662,4,LiB(HO)4,Pbca
622,0.001240868,"['Co', 'Li', 'O', 'P']",mp-25660,4,LiCo2P3O10,P2_1/m
623,0.001281302,"['Li', 'O', 'P', 'W']",mp-763461,4,LiP3(WO6)2,P2_1/c
624,0.001286468,"['B', 'Be', 'Li', 'O']",mp-1020026,4,LiBeBO3,P-1
625,0.001289213,"['Li', 'Fe', 'Si', 'O']",mp-18968,4,Li2FeSiO4,Pmn2_1
626,0.001291197,"['Co', 'Li', 'O', 'V']",mp-768046,4,LiVCoO4,Imma
627,0.00130142,"['Li', 'Mn', 'O', 'Sn']",mp-770037,4,LiMnSnO4,Imma
628,0.001304465,"['Cr', 'Fe', 'Li', 'O']",mp-769998,4,Li2CrFeO4,P-1
629,0.001305353,"['Ge', 'Li', 'O']",mp-28548,3,Li8GeO6,P6_3cm
630,0.001309882,"['Co', 'Li', 'O', 'P']",mp-31539,4,Li4Co(PO4)2,P2_1/c
631,0.001368658,"['Li', 'O', 'P', 'V']",mp-853258,4,Li2V2(PO4)3,P2_1/c
632,0.001371529,"['Cr', 'Fe', 'Li', 'O']",mp-765495,4,Li4CrFe3O8,R-3m
633,0.0013723,"['Li', 'O', 'P', 'V']",mp-1101492,4,LiV2(PO4)3,Cc
634,0.001375986,"['Li', 'O', 'Os']",mp-1211187,3,Li5OsO6,P3_112
635,0.001378216,"['Li', 'O', 'P', 'Zn']",mp-1200615,4,Li4Zn(PO4)2,P2_1
636,0.001402637,"['Cr', 'Fe', 'Li', 'O']",mp-770328,4,Li4Cr3FeO8,P-1
637,0.001409957,"['Co', 'Li', 'Ni', 'O']",mp-762296,4,Li2Co3NiO8,P4_332
638,0.001413844,"['Li', 'O', 'Ti', 'Zn']",mp-773039,4,Li2Ti6Zn3O16,P2_1
639,0.001432788,"['As', 'Li', 'Mg', 'O']",mp-8870,4,LiMgAsO4,Pnma
640,0.001442743,"['Cr', 'Fe', 'Li', 'O']",mp-770013,4,Li2CrFeO4,P-1
641,0.001459863,"['Ge', 'Li', 'O', 'P']",mp-541272,4,LiGe2(PO4)3,R-3c
642,0.001468775,"['Ag', 'Li', 'O']",mp-996997,3,LiAgO2,Pmna
643,0.001514582,"['Li', 'O', 'Si']",mp-555899,3,Li2Si3O7,Pbcm
644,0.00159281,"['Li', 'O', 'P', 'Ti']",mp-759793,4,LiTi2(PO4)3,Pna2_1
645,0.001643826,"['Cr', 'Fe', 'Li', 'O']",mp-770032,4,Li2CrFeO4,P-1
646,0.001652086,"['Li', 'Mo', 'O', 'P']",mp-32066,4,LiMo2(PO4)3,P-1
647,0.001655441,"['Co', 'Li', 'O']",mp-1185179,3,Li10Co4O9,P4_2/nmc
648,0.001664919,"['Fe', 'Li', 'O', 'Si']",mp-646320,4,Li2FeSiO4,P2_1/c
649,0.001668851,"['In', 'Li', 'O', 'Si']",mp-7205,4,LiInSiO4,Pnma
650,0.001721446,"['Hf', 'Li', 'O']",mp-770805,3,Li6Hf2O7,P2_1/c
651,0.001750556,"['Li', 'Cr', 'Fe', 'O']",mp-770193,4,Li2CrFeO4,C2/m
652,0.001756519,"['Fe', 'Li', 'O', 'P']",mp-762728,4,Li3Fe2(PO4)3,P1
653,0.001767454,"['Fe', 'Li', 'O', 'Si']",mp-762678,4,LiFeSiO4,R3
654,0.001776875,"['Li', 'O', 'P', 'V']",mp-1199961,4,Li2V2(PO4)3,Pbcn
655,0.001789799,"['Cr', 'Fe', 'Li', 'O']",mp-1177503,4,Li4Cr3FeO8,C2/m
656,0.00181499,"['H', 'Li', 'O', 'P']",mp-765567,4,Li4P5HO15,P-1
657,0.00182037,"['Fe', 'Li', 'Mn', 'O']",mp-777396,4,Li2Mn3FeO8,P4_32_12
658,0.001836467,"['Ge', 'Li', 'Nd', 'O']",mp-556814,4,LiNdGeO4,Pbcn
659,0.001859312,"['Co', 'Li', 'O', 'P']",mp-585378,4,Li2Co3(P2O7)2,P2_1/c
660,0.001879103,"['Li', 'Ni', 'O']",mp-769454,3,Li9(NiO2)10,P-1
661,0.001881366,"['Ba', 'Li', 'O', 'P']",mp-6175,4,BaLi2P2O7,C2/c
662,0.001904293,"['Co', 'Li', 'O', 'P']",mp-767242,4,LiCo2(PO4)2,Pc
663,0.001926487,"['Cr', 'Li', 'O']",mp-566811,3,LiCr3O8,C2/m
664,0.001943835,"['Li', 'Mn', 'O', 'V']",mp-775199,4,LiMnVO4,Pnma
665,0.002025637,"['Li', 'Mn', 'O']",mp-1097867,3,LiMn2O4,P1
666,0.002055283,"['Li', 'O', 'Sc', 'Si']",mp-6553,4,LiSc(SiO3)2,C2/c
667,0.002107451,"['Li', 'O', 'Sc', 'Si']",mp-6099,4,LiSc(SiO3)2,P2_1/c
668,0.002141468,"['Fe', 'Li', 'Mg', 'O']",mp-1037677,4,LiMg30FeO32,P4/mmm
669,0.002146495,"['B', 'Li', 'O', 'V']",mp-770361,4,LiV2BO5,Pbam
670,0.002171146,"['Cr', 'Fe', 'Li', 'O']",mp-769983,4,Li2CrFeO4,P2/m
671,0.002191222,"['Li', 'O', 'Tm']",mp-1176564,3,LiTmO2,P2_1/c
672,0.0021955,"['Fe', 'Li', 'O', 'Si']",mp-19061,4,LiFe(SiO3)2,P2_1/c