,e_above_hull,elements,material_id,nelements,pretty_formula,spacegroup.symbol
3574,0.042145127,"['Li', 'Mn', 'O']",mp-1175344,3,Li7Mn5O12,P-1
3575,0.04214662,"['Fe', 'Li', 'O', 'P']",mp-773358,4,Li2Fe2(PO4)3,P-1
3576,0.042168928,"['Li', 'Mn', 'O', 'P']",mp-777067,4,Li2MnP2O7,P2_1
3577,0.042186038,"['Co', 'Li', 'O', 'Sn']",mp-771202,4,Li4Co5SnO12,C2/m
3578,0.042200897,"['Li', 'O', 'P', 'V']",mp-761942,4,Li3V3P8O29,P1
3579,0.042201057,"['Co', 'Fe', 'Li', 'O']",mp-1177976,4,Li2FeCo3O8,C2
3580,0.042201557,"['Fe', 'Li', 'O', 'P']",mp-687200,4,LiFe(PO3)5,P2_1/c
3581,0.042210038,"['Cu', 'Li', 'O', 'P']",mp-684120,4,LiCuP2O7,P2_1/c
3582,0.042222025,"['Li', 'Nb', 'O', 'Zn']",mp-756376,4,Li3Nb4ZnO12,P1
3583,0.042231666,"['Fe', 'Li', 'O', 'Y']",mp-771998,4,Li4Y3FeO8,C222
3584,0.04224049,"['Fe', 'Li', 'O', 'Si']",mp-761764,4,Li3Fe(Si2O5)3,Pnma
3585,0.042243831,"['Li', 'Ni', 'O', 'Sb']",mp-772278,4,Li2Ni2SbO6,Cmce
3586,0.042248796,"['Li', 'Ni', 'O', 'Sn']",mp-775515,4,Li2Ni3SnO8,R-3m
3587,0.042261191,"['Li', 'Mn', 'O']",mp-1100489,3,Li9Mn7O16,C2/m
3588,0.042279281,"['B', 'Fe', 'Li', 'O']",mp-1177118,4,Li5Fe8(BO3)8,P1
3589,0.042298391,"['Li', 'Mn', 'O']",mp-1045540,3,Li3Mn4O8,Cm
3590,0.042299997,"['Co', 'Li', 'O']",mp-705640,3,Li20Co21O40,P1
3591,0.042315366,"['B', 'Fe', 'Li', 'O']",mp-764798,4,Li5Fe8(BO3)8,P1
3592,0.042351164,"['Li', 'Mn', 'O', 'P']",mp-540418,4,LiMnPO4,Pc
3593,0.042351593,"['Li', 'O', 'P', 'V']",mp-764123,4,Li3V3P8O29,P1
3594,0.042358395,"['Li', 'Nb', 'O', 'Sr']",mp-756854,4,Sr2LiNb3O10,C2
3595,0.042374431,"['Co', 'Li', 'O']",mp-765047,3,Li(CoO2)4,R-3m
3596,0.04237641,"['Li', 'Mn', 'O', 'P']",mp-31979,4,Li2Mn(PO3)4,P2_1/c
3597,0.042429399,"['Li', 'O', 'V']",mp-773728,3,Li5V18O44,Pm
3598,0.042455539,"['Fe', 'Li', 'O', 'P']",mp-762669,4,LiFeP2O7,P2_1/c
3599,0.042456929,"['Fe', 'Li', 'O']",mp-781056,3,Li5FeO4,Pnnm
3600,0.042461444,"['Fe', 'Li', 'O', 'V']",mp-773995,4,Li5V5(FeO6)2,C2
3601,0.042472452,"['Cr', 'Li', 'O', 'P']",mp-774463,4,Li3Cr2(PO4)3,C2
3602,0.042500215,"['B', 'Li', 'Mn', 'O']",mp-851005,4,Li2Mn3(BO3)3,P1
3603,0.04250572,"['Fe', 'Li', 'O', 'Ti']",mp-762689,4,Li4Ti2Fe5O12,P2_1
3604,0.042510313,"['Li', 'O', 'P', 'V']",mp-1177393,4,Li4V3P8O29,P1
3605,0.042510452,"['Ce', 'Li', 'O']",mp-8412,3,LiCeO2,P2_1/c
3606,0.04251843,"['Li', 'O', 'P', 'V']",mp-849501,4,Li3V3P8O29,C2
3607,0.042541526,"['Fe', 'Li', 'O', 'Si']",mp-1177679,4,Li3Fe2(SiO4)2,Pc
3608,0.042553524,"['Li', 'Mn', 'O']",mp-780141,3,Li6Mn5O12,P1
3609,0.042570159,"['Li', 'O', 'Pd']",mp-532526,3,Li2PdO3,P1
3610,0.042580133,"['Li', 'O', 'P', 'V']",mp-761946,4,Li3V3P8O29,P1
3611,0.042618958,"['B', 'Li', 'O']",mp-768884,3,Li4B2O5,C2/c
3612,0.042623749,"['Li', 'O', 'P', 'Sn']",mp-25907,4,LiSn(PO3)4,Pbcn
3613,0.042636981,"['Li', 'O', 'P', 'V']",mp-761943,4,Li3V3P8O29,P1
3614,0.042695237,"['Cr', 'Li', 'O', 'P']",mp-777633,4,LiCrP2O7,Cc
3615,0.042697003,"['Fe', 'Li', 'O', 'P']",mp-851277,4,Li4Fe2(PO4)3,Pbcn
3616,0.042707875,"['Li', 'Mn', 'O', 'P']",mp-540033,4,LiMnP2O7,Pc
3617,0.042708045,"['Cu', 'Li', 'O', 'P']",mp-26477,4,LiCuPO4,I-4
3618,0.042730632,"['Li', 'Ni', 'O', 'Ti']",mp-775519,4,Li2Ti3NiO8,P6_3mc
3619,0.042743595,"['Fe', 'Li', 'O', 'P']",mp-705089,4,LiFe3P3O11,P2_1/c
3620,0.042756061,"['Cr', 'Li', 'O', 'P']",mp-540462,4,LiCrPO4,P-1
3621,0.042769613,"['Co', 'Li', 'Mn', 'O']",mp-1173957,4,Li3Mn2CoO6,P-1
3622,0.042771579,"['Fe', 'Li', 'O', 'P']",mp-762486,4,LiFe(PO3)3,Pnma
3623,0.042771896,"['Ca', 'Li', 'O', 'Ta']",mp-15902,4,Li2Ca2Ta3O10,I4/mmm
3624,0.042778814,"['B', 'Fe', 'Li', 'O']",mp-764657,4,Li5Fe8(BO3)8,P1
3625,0.042779014,"['Co', 'Li', 'O', 'P']",mp-540434,4,LiCo(PO3)4,P2_1
3626,0.042785663,"['Li', 'O', 'P', 'V']",mp-761935,4,Li3V3P8O29,C2/c
3627,0.042836715,"['Fe', 'Li', 'O', 'Si']",mp-761409,4,LiFeSiO4,P2_13
3628,0.042844511,"['Co', 'Li', 'O']",mp-773128,3,Li10Co4O9,P-1
3629,0.042849415,"['Co', 'Li', 'Mn', 'O']",mp-1174192,4,Li4Mn3CoO8,P-1
3630,0.042856992,"['Li', 'Mn', 'O']",mp-770797,3,LiMn2O4,R3m
3631,0.04286952,"['B', 'Fe', 'Li', 'O']",mp-764626,4,Li5Fe8(BO3)8,P1
3632,0.04289335,"['C', 'Cu', 'Li', 'O']",mp-752638,4,LiCuCO3,Ibca
3633,0.042940466,"['Cr', 'Li', 'O', 'V']",mp-769596,4,Li3V3CrO8,P1
3634,0.042945094,"['Cr', 'Li', 'O']",mp-772513,3,LiCr3O8,Pnma
3635,0.042952411,"['Fe', 'Li', 'O', 'P']",mp-762666,4,LiFe5P3O13,P-1
3636,0.042962442,"['Fe', 'Li', 'O', 'Ti']",mp-769660,4,Li2TiFe2O5,C2/c
3637,0.042982586,"['Cu', 'Li', 'O', 'P']",mp-761911,4,Li2Cu(PO3)4,Cc
3638,0.042985171,"['B', 'Fe', 'Li', 'O']",mp-764904,4,LiFe2(BO3)2,Pc
3639,0.042985665,"['Fe', 'Li', 'O', 'P']",mp-763894,4,Li3Fe3(PO4)4,P1
3640,0.0429879,"['Li', 'Mn', 'O']",mp-770530,3,Li14Mn2O9,P-3
3641,0.042995233,"['Li', 'O', 'P', 'Sb']",mp-684090,4,LiSbP2O7,P2_1/c
3642,0.04300033,"['Li', 'Ni', 'O']",mp-762449,3,Li7Ni13O24,C2/m
3643,0.043007933,"['Li', 'O', 'P', 'V']",mp-780579,4,Li3V3P8O29,Cc
3644,0.043010347,"['Li', 'Mn', 'O', 'V']",mp-772658,4,Li9Mn7V12O48,P1
3645,0.043024359,"['Cr', 'Li', 'O']",mp-772318,3,Li2Cr2O7,P-1
3646,0.04303947,"['Li', 'Mn', 'O', 'P']",mp-861062,4,LiMnPO4,P6_3
3647,0.043047594,"['Li', 'O', 'P', 'V']",mp-764150,4,Li3V3P8O29,P1
3648,0.043049431,"['Li', 'O', 'P', 'V']",mp-1176978,4,Li9V6(P8O29)2,P1
3649,0.043064408,"['B', 'Li', 'Mn', 'O']",mp-771276,4,LiMnB2O5,P2_1/c
3650,0.043087392,"['Cr', 'Li', 'O']",mp-771430,3,Li6Cr2O7,C2/c
3651,0.043087895,"['Li', 'Mn', 'O', 'Sb']",mp-774006,4,Li4Mn3SbO8,R-3m
3652,0.043089541,"['Li', 'O', 'P', 'V']",mp-761344,4,Li2VP2O7,P1
3653,0.043114879,"['Co', 'Cu', 'Li', 'O']",mp-770184,4,Li3Co(CuO2)4,C2/m
3654,0.043135616,"['Co', 'Li', 'Mn', 'O']",mp-771231,4,Li4Mn5Co3O16,Cm
3655,0.043177874,"['Co', 'Li', 'Mn', 'O']",mp-1175159,4,Li7Mn4CoO12,P-1
3656,0.043186197,"['Fe', 'Li', 'O', 'Sb']",mp-772131,4,Li3Fe3SbO8,C2/m
3657,0.043188542,"['Cr', 'Li', 'O', 'Ti']",mp-767329,4,Li3TiCr3O8,C2/m
3658,0.043188656,"['Cu', 'Li', 'O', 'Sb']",mp-767480,4,Li3Cu2SbO6,C2/c
3659,0.043217071,"['Li', 'Mn', 'O', 'P']",mp-777066,4,Li2MnP2O7,P2_1/c
3660,0.043232812,"['Cu', 'Li', 'O', 'P']",mp-504264,4,LiCuPO4,P2_1/c
3661,0.043252896,"['Li', 'Mn', 'O', 'P']",mp-1176756,4,LiMn4(P2O7)3,P2_1/c
3662,0.043258963,"['Li', 'Mo', 'O', 'P']",mp-704198,4,LiMo2P3O13,P2_1
3663,0.043272611,"['Co', 'Cr', 'Li', 'O']",mp-761748,4,Li2CrCo3O8,R-3m
3664,0.043275737,"['Li', 'O', 'P', 'Ti']",mp-1176592,4,LiTi(PO3)4,C2/c
3665,0.043285109,"['Co', 'Li', 'O', 'P']",mp-31553,4,LiCoPO4,P2_1/c
3666,0.043287394,"['Li', 'O', 'P', 'V']",mp-863876,4,Li3V3P8O29,P1
3667,0.043289582,"['Fe', 'Li', 'O', 'P']",mp-767237,4,LiFe2(PO4)2,P2_1
3668,0.043291438,"['Li', 'O', 'P', 'V']",mp-1177226,4,Li4V3P8O29,P1
3669,0.043321921,"['Li', 'O', 'V', 'Zn']",mp-1222531,4,Li3V8ZnO16,P-4m2
3670,0.043324371,"['Li', 'O', 'Ti', 'V']",mp-763639,4,Li3Ti2V3O10,P-1
3671,0.043328087,"['Li', 'O', 'V']",mp-773362,3,Li2V6O15,C2/m
3672,0.043353837,"['Li', 'O', 'P', 'V']",mp-764122,4,Li3V3P8O29,P1
3673,0.043360135,"['Cu', 'Li', 'O', 'P']",mp-25975,4,LiCu(PO3)2,C2/c
3674,0.043361399,"['Li', 'Ni', 'O']",mp-769472,3,Li11(NiO4)2,C2
3675,0.043361446,"['Li', 'O', 'P', 'V']",mp-1177499,4,Li3V3P8O29,P1
3676,0.043381405,"['Cr', 'Li', 'O']",mp-773145,3,Li2Cr4O13,C222_1
3677,0.043393875,"['Cs', 'Li', 'O', 'Tb']",mp-8711,4,Cs2Li14Tb3O14,Immm
3678,0.043397109,"['Li', 'O', 'Ti', 'V']",mp-763708,4,Li2TiV2O6,C2/m
3679,0.043412244,"['Li', 'Ni', 'O', 'Si']",mp-859799,4,Li9Si2Ni5O16,P-1
3680,0.043416664,"['B', 'Cr', 'Li', 'O']",mp-771379,4,LiCrBO3,P1
3681,0.043423752,"['Cr', 'Li', 'O', 'P']",mp-540443,4,LiCrPO4,P31c
3682,0.043424952,"['Li', 'Ni', 'O', 'P']",mp-705401,4,Li2Ni4P4O15,C2/c
3683,0.043429983,"['Fe', 'Li', 'Ni', 'O']",mp-773354,4,Li5Fe3(NiO5)2,P-1
3684,0.043468642,"['C', 'Li', 'Mn', 'O']",mp-764944,4,LiMn(CO3)2,P2_1
3685,0.043486359,"['Cu', 'Li', 'O', 'V']",mp-772248,4,LiV4CuO12,C2
3686,0.043510822,"['Li', 'Mn', 'Ni', 'O']",mp-762624,4,Li2Mn(NiO3)2,C2
3687,0.043529925,"['B', 'Co', 'Li', 'O']",mp-769782,4,Li3Co(BO3)2,P-1
3688,0.043532743,"['Li', 'Mg', 'Na', 'O']",mp-1040085,4,NaLiMg30O31,Pmm2
3689,0.043533624,"['Li', 'O', 'P', 'V']",mp-1177312,4,Li4V3P8O29,P1
3690,0.043540185,"['B', 'Fe', 'Li', 'O']",mp-764541,4,Li5Fe8(BO3)8,P1
3691,0.043544413,"['Cr', 'Li', 'O', 'P']",mp-762941,4,Li6Cr5(P2O7)4,P-1
3692,0.043551829,"['Cr', 'Cu', 'Li', 'O']",mp-766740,4,Li6Cr5CuO12,C2/m
3693,0.043552513,"['Li', 'Mn', 'O']",mp-775531,3,LiMnO2,Cc
3694,0.043566642,"['Fe', 'Li', 'O', 'Sb']",mp-770140,4,Li4Fe5Sb3O16,Cm
3695,0.043585996,"['Fe', 'Li', 'O', 'P']",mp-772517,4,Li7Fe4(PO4)6,Cc
3696,0.043588946,"['Li', 'O', 'P', 'V']",mp-850770,4,Li9V6(P8O29)2,P1
3697,0.043608396,"['Co', 'Li', 'Mn', 'O']",mp-778656,4,Li4Mn3(CoO4)3,P-1
3698,0.043613308,"['B', 'Li', 'Mn', 'O']",mp-850028,4,Li2Mn3(BO3)3,P1
3699,0.043632635,"['C', 'Co', 'Li', 'O']",mp-764978,4,LiCo(CO3)2,P2_1
3700,0.043664913,"['Li', 'Ni', 'O', 'P']",mp-762021,4,LiNiPO4,P2_12_12_1
3701,0.043670256,"['Li', 'Ni', 'O', 'P']",mp-540011,4,Li2Ni(PO3)5,Pc
3702,0.043681704,"['Al', 'Li', 'Ni', 'O']",mp-1222577,4,LiAlNi3O5,C2/m
3703,0.043725076,"['Fe', 'Li', 'O', 'Sb']",mp-769870,4,Li4Fe3Sb5O16,P1
3704,0.043777128,"['Li', 'O', 'Y', 'Zr']",mp-755289,4,Li3Y3ZrO8,C222
3705,0.043782296,"['Co', 'Cr', 'Li', 'O']",mp-762918,4,Li2Cr2CoO6,C2/m
3706,0.043792868,"['Li', 'O', 'P', 'W']",mp-763529,4,Li3P2WO9,P2_1/c
3707,0.043814009,"['Cr', 'Li', 'O']",mp-770694,3,Li6Cr2O7,P2_1/c
3708,0.043816453,"['Li', 'O', 'P', 'V']",mp-772256,4,LiVPO5,Pna2_1
3709,0.043827516,"['B', 'Li', 'Mn', 'O']",mp-771291,4,Li3Mn(BO2)5,P-1
3710,0.043832939,"['B', 'Co', 'Li', 'O']",mp-779853,4,Li3Co(BO3)2,P2_1/c
3711,0.043854398,"['Li', 'Nb', 'O']",mp-766084,3,Li7Nb12O24,P-1
3712,0.043863205,"['Cr', 'Li', 'Ni', 'O']",mp-771619,4,Li5Cr2Ni3O10,P-1
3713,0.043880542,"['B', 'Li', 'Mn', 'O']",mp-850410,4,Li2Mn3(BO3)3,P-1
3714,0.043884835,"['Fe', 'Li', 'O', 'Si']",mp-765961,4,LiFeSi3O8,P2_1/c
3715,0.043904815,"['Li', 'Mn', 'O']",mp-1174323,3,Li4Mn3O7,P-1
3716,0.043907299,"['Fe', 'Li', 'O', 'Zn']",mp-773267,4,LiZn(Fe5O8)2,R3m
3717,0.043915344,"['Fe', 'Li', 'O', 'Si']",mp-763740,4,LiFeSiO4,P6_3
3718,0.043915952,"['Li', 'Mn', 'O', 'P']",mp-767906,4,LiMn2(PO4)2,P1
3719,0.043920535,"['Li', 'O', 'P', 'V']",mp-764065,4,Li3V3P8O29,P1
3720,0.043930208,"['B', 'Fe', 'Li', 'O']",mp-775280,4,Li5Fe8(BO3)8,P1
3721,0.043934665,"['Li', 'Mo', 'O', 'P']",mp-540435,4,Li2Mo(PO4)2,Cc
3722,0.043938955,"['Li', 'O', 'Ti']",mp-1192813,3,LiTi2O4,Pmn2_1
3723,0.043949496,"['Co', 'H', 'Li', 'O']",mp-778561,4,Li5CoHO4,Pnma
3724,0.043999884,"['Li', 'Ni', 'O']",mp-762255,3,Li(NiO2)2,Imma
3725,0.044009718,"['Co', 'Li', 'O', 'V']",mp-775098,4,Li2VCo3O8,R-3m
3726,0.044021589,"['Cr', 'Li', 'O', 'P']",mp-31722,4,Li4Cr(PO4)2,P2_1/c
3727,0.044022451,"['Li', 'O', 'P', 'Sb']",mp-504340,4,LiSb(PO3)4,P2_1
3728,0.044037999,"['Li', 'O', 'V']",mp-704734,3,Li2V18O39,P1
3729,0.044060716,"['Li', 'O', 'P', 'V']",mp-863891,4,Li3V3P8O29,P1
3730,0.044069883,"['Li', 'O', 'Ti', 'V']",mp-764015,4,Li4Ti3VO8,R-3m
3731,0.04407468,"['Li', 'O', 'P', 'V']",mp-774346,4,Li3V2(PO4)3,C2
3732,0.044080568,"['Li', 'Mn', 'Ni', 'O']",mp-771714,4,Li3MnNi3O8,R-3m
3733,0.044080659,"['Co', 'Li', 'O', 'Ti']",mp-763447,4,Li5Ti2Co5O12,C2
3734,0.044084645,"['Li', 'Ni', 'O']",mp-762902,3,Li2(NiO2)3,Cc
3735,0.044103622,"['Co', 'Li', 'O', 'Si']",mp-763492,4,Li3CoSiO5,Pna2_1
3736,0.044104041,"['Cr', 'Cu', 'Li', 'O']",mp-1178032,4,Li2CrCuO4,I-4m2
3737,0.044110099,"['Li', 'Ni', 'O', 'P']",mp-767051,4,LiNi2(PO4)2,P2_1
3738,0.044118655,"['Li', 'Nb', 'O']",mp-676591,3,Li11Nb12O36,P1
3739,0.044119923,"['La', 'Li', 'O', 'Ti']",mp-557492,4,LiLa5Ti8O24,Pm
3740,0.044121173,"['Co', 'Li', 'Nb', 'O']",mp-761806,4,Li2NbCo3O8,P6_3mc
3741,0.04412261,"['Al', 'Li', 'Mn', 'O']",mp-770551,4,Li2MnAlO4,P2_1/c
3742,0.044149305,"['Li', 'O', 'Ti']",mp-752879,3,Li3Ti4O8,R-3m
3743,0.044172678,"['Li', 'Mn', 'O', 'P']",mp-540475,4,LiMnPO4,P-1
3744,0.044193547,"['Li', 'O', 'P', 'Sn']",mp-757899,4,Li3Sn2(PO4)3,P2_1/c
3745,0.044195419,"['Co', 'Li', 'Mn', 'O']",mp-761367,4,Li3Mn2CoO6,C2/m
3746,0.044196126,"['Li', 'Mn', 'O']",mp-762419,3,Li4Mn7O12,P1
3747,0.044196952,"['Li', 'Mn', 'O']",mp-764759,3,Li6Mn5O12,C2
3748,0.044197254,"['Li', 'O', 'P', 'V']",mp-766662,4,Li4V3P8O29,P1
3749,0.044201095,"['Li', 'Mn', 'O']",mp-1175357,3,Li7Mn5O12,P2/m
3750,0.044204443,"['Co', 'Li', 'O', 'P']",mp-761664,4,Li2CoP2O7,P2_1/c
3751,0.044206608,"['Li', 'O', 'P', 'V']",mp-762033,4,Li3V3P8O29,P1
3752,0.04420679,"['Fe', 'Li', 'Mn', 'O']",mp-777733,4,Li5Mn2Fe17O32,P1
3753,0.044218153,"['C', 'Fe', 'Li', 'O']",mp-761994,4,LiFeCO4,Pnma
3754,0.044258879,"['Co', 'Li', 'Ni', 'O']",mp-765694,4,Li3Co(NiO3)2,C2/c
3755,0.044274549,"['Cr', 'Li', 'O', 'P']",mp-704942,4,Li2Cr(PO3)5,Pc
3756,0.044277021,"['Li', 'O', 'P', 'V']",mp-863890,4,Li3V3P8O29,P1
3757,0.044288902,"['Li', 'O', 'P', 'V']",mp-763528,4,LiV4(PO4)3,I-42d
3758,0.044299725,"['Li', 'O', 'P', 'V']",mp-764263,4,Li3V3P8O29,P1
3759,0.044307815,"['B', 'Fe', 'Li', 'O']",mp-764507,4,Li5Fe8(BO3)8,P1
3760,0.044312964,"['Co', 'Li', 'O']",mp-699137,3,Li4(CoO2)7,P1
3761,0.044313797,"['Li', 'O', 'V', 'Y']",mp-773348,4,Li4Y3VO8,C222
3762,0.044323569,"['B', 'Fe', 'Li', 'O']",mp-764552,4,LiFe2(BO3)2,P1
3763,0.044346897,"['Cu', 'Li', 'Mn', 'O']",mp-772456,4,Li2Mn3CuO8,Cc
3764,0.044355009,"['Li', 'Mn', 'O']",mp-1173969,3,Li3Mn2O5,P-1
3765,0.044355519,"['Fe', 'Li', 'O', 'Ti']",mp-771498,4,Li4Ti3Fe5O16,P1
3766,0.044365568,"['B', 'Li', 'Mn', 'O']",mp-853194,4,Li2Mn3(BO3)3,P-1
3767,0.044368873,"['Co', 'Li', 'O', 'P']",mp-31606,4,LiCo(PO3)4,C2/c
3768,0.044377096,"['Cu', 'Li', 'Ni', 'O']",mp-770350,4,Li3Cu4NiO8,C2/m
3769,0.044383532,"['Li', 'O', 'P', 'V']",mp-761374,4,Li3V2(PO4)3,C2
3770,0.044388833,"['B', 'Fe', 'Li', 'O']",mp-764576,4,Li5Fe8(BO3)8,P1
3771,0.04439206,"['Fe', 'Li', 'O', 'P']",mp-762621,4,LiFe(PO3)3,P-1
3772,0.044399057,"['Li', 'O', 'P', 'V']",mp-1177204,4,Li4V3P8O29,P1
3773,0.044406252,"['Li', 'Mn', 'O']",mp-1175373,3,Li7Mn5O12,P-1
3774,0.044410941,"['Cr', 'Li', 'O', 'P']",mp-1178073,4,Li2CrP2O7,P1
3775,0.044411725,"['Fe', 'Li', 'O', 'P']",mp-766780,4,Li3Fe2(PO4)3,Ia-3d
3776,0.044411953,"['Li', 'O', 'P', 'V']",mp-1177387,4,Li4V3P8O29,Cc
3777,0.044473129,"['Fe', 'Li', 'O', 'P']",mp-762561,4,LiFeP2O7,P2_1/c
3778,0.044479184,"['Fe', 'Li', 'O', 'Ti']",mp-765697,4,Li2TiFeO4,Imm2
3779,0.044482666,"['Cu', 'La', 'Li', 'O']",mp-1222487,4,LiLa8Cu3O16,P-1
3780,0.044492811,"['Li', 'Mn', 'O', 'P']",mp-1177149,4,Li5Mn4(P2O7)4,P1
3781,0.04449464,"['Fe', 'Li', 'O', 'P']",mp-1177154,4,Li5Fe4(P2O7)4,P1
3782,0.044497431,"['Fe', 'Li', 'O', 'P']",mp-762680,4,Li2Fe3P9O28,P-1
3783,0.044507075,"['Li', 'Mn', 'O']",mp-1174015,3,Li3Mn2O5,C2/m
3784,0.044510048,"['Fe', 'Li', 'O', 'V']",mp-776768,4,Li4V5Fe3O16,P1
3785,0.044531171,"['C', 'Li', 'Ni', 'O']",mp-765316,4,Li3Ni2(CO3)4,P1
3786,0.044569886,"['Li', 'O', 'P', 'V']",mp-540312,4,Li2V(PO4)2,P2_1
3787,0.044575267,"['Co', 'Li', 'Mn', 'O']",mp-1174775,4,Li6Mn3CoO10,P1
3788,0.044583817,"['Fe', 'Li', 'O', 'P']",mp-540405,4,LiFePO4,Pna2_1
3789,0.044590132,"['Li', 'Ni', 'O', 'Si']",mp-766991,4,Li4Si3(NiO5)2,C2/c
3790,0.044599494,"['Li', 'O', 'P', 'V']",mp-764178,4,Li3V3P8O29,P3c1
3791,0.044600677,"['K', 'Li', 'Ni', 'O']",mp-776912,4,KLiNiO2,C2/m
3792,0.044601648,"['Li', 'Mn', 'O']",mp-33461,3,Li3Mn3O8,R-3m
3793,0.044638646,"['Fe', 'Li', 'O', 'P']",mp-762457,4,LiFePO4,P-1
3794,0.04463883,"['Li', 'Mn', 'O']",mp-1174322,3,Li4Mn3O7,P-1
3795,0.044646014,"['Cr', 'Li', 'O', 'P']",mp-705315,4,LiCr(PO3)5,P2_1/c
3796,0.044649191,"['Co', 'Cr', 'Li', 'O']",mp-769795,4,Li3Cr(CoO2)4,C2/m
3797,0.044667388,"['Li', 'O', 'P', 'V']",mp-764068,4,Li3V3P8O29,P1
3798,0.04468875,"['Li', 'Ni', 'O']",mp-768104,3,Li6(NiO2)13,P-1
3799,0.044715041,"['B', 'Cu', 'Li', 'O']",mp-556002,4,Li6Cu(B2O5)2,P1
3800,0.044721296,"['Li', 'Ni', 'O']",mp-850116,3,Li8(NiO2)5,P-1
3801,0.04472944,"['Fe', 'Li', 'O', 'Si']",mp-761820,4,LiFeSi3O8,P-1
3802,0.04473554,"['Li', 'O', 'P', 'V']",mp-851255,4,Li4V3P8O29,P1
3803,0.044749484,"['B', 'Fe', 'Li', 'O']",mp-762245,4,LiFe2(BO3)2,Cc
3804,0.044752401,"['Co', 'Li', 'O', 'P']",mp-761974,4,LiCoPO4,P2_1/c
3805,0.044758269,"['Co', 'Li', 'Mn', 'O']",mp-1173946,4,Li3Mn2CoO6,C2/m
3806,0.044761185,"['Fe', 'Li', 'O', 'P']",mp-762547,4,LiFe4(PO4)3,Pccn
3807,0.044765612,"['Li', 'O', 'P', 'V']",mp-766647,4,Li4V3P8O29,P1
3808,0.044788882,"['B', 'Fe', 'Li', 'O']",mp-764665,4,Li5Fe8(BO3)8,P1
3809,0.044798557,"['Cr', 'Li', 'Ni', 'O']",mp-764140,4,Li5Cr3NiO8,P4_332
3810,0.044800332,"['Li', 'Mn', 'O', 'P']",mp-763663,4,LiMn3(P3O10)2,C222_1
3811,0.044803691,"['B', 'Li', 'Ni', 'O']",mp-777085,4,Li4Ni(BO3)2,Pnnm
3812,0.044859012,"['Li', 'O', 'P', 'V']",mp-763475,4,Li2V3(P2O7)2,P-1
3813,0.04485914,"['Fe', 'Li', 'O', 'Ti']",mp-772244,4,Li2TiFeO4,P2/m
3814,0.044862178,"['Cu', 'Fe', 'Li', 'O']",mp-773460,4,Li2FeCuO4,P2/m
3815,0.04487938,"['Li', 'Mn', 'O', 'P']",mp-761699,4,LiMnPO4,P6_1
3816,0.044883942,"['Fe', 'Li', 'O', 'Ti']",mp-764006,4,Li3TiFe3O8,P6_3mc
3817,0.044915944,"['Li', 'O', 'P', 'V']",mp-762146,4,Li3V3P8O29,P1
3818,0.044918124,"['Li', 'O', 'P', 'V']",mp-1177192,4,Li4V3P8O29,Cc
3819,0.04493459,"['Li', 'O', 'P', 'V']",mp-761956,4,Li3V3P8O29,P1
3820,0.044943615,"['B', 'Fe', 'Li', 'O']",mp-764493,4,Li5Fe8(BO3)8,P1
3821,0.044945074,"['B', 'Li', 'O', 'V']",mp-770358,4,Li3V3(BO5)2,P-1
3822,0.044963678,"['Li', 'O', 'P', 'V']",mp-851212,4,Li9V6(P8O29)2,P1
3823,0.044968246,"['Fe', 'Li', 'Mn', 'O']",mp-772481,4,Li4Mn5Fe3O16,Cm
3824,0.044976755,"['Li', 'Ni', 'O', 'Si']",mp-761723,4,Li2Si4Ni4O13,P-1
3825,0.044983123,"['Li', 'Mg', 'Na', 'O']",mp-1040107,4,NaLiMg30O31,P4mm
3826,0.04500138,"['Cr', 'Fe', 'Li', 'O']",mp-775335,4,Li2Cr3FeO8,Cc
3827,0.045002703,"['Li', 'Nb', 'Ni', 'O']",mp-769907,4,Li4NbNi3O8,R-3m
3828,0.045008064,"['Li', 'O', 'P', 'V']",mp-863870,4,Li3V3P8O29,P1
3829,0.045009281,"['B', 'Li', 'O', 'V']",mp-770354,4,Li3V3(BO5)2,P2_1/c
3830,0.045028078,"['Li', 'O', 'P', 'V']",mp-1176830,4,Li9V4(PO4)6,P1
3831,0.045034191,"['Cr', 'Li', 'O', 'P']",mp-761400,4,LiCrPO4,P2_1/c
3832,0.045068744,"['Co', 'Li', 'Mn', 'O']",mp-1174383,4,Li5Mn2CoO8,P1
3833,0.045073836,"['Al', 'Li', 'Mn', 'O']",mp-770386,4,LiMnAlO4,Pnma
3834,0.045082197,"['Fe', 'Li', 'O', 'P']",mp-761516,4,Li2Fe(PO4)2,Pbca
3835,0.045088283,"['Li', 'Mn', 'O', 'P']",mp-1177609,4,Li3Mn5(PO4)6,C2/c
3836,0.045089803,"['Li', 'O', 'Zr']",mp-765573,3,Li4Zr3O8,P2/c
3837,0.045094605,"['B', 'Fe', 'Li', 'O']",mp-764614,4,Li5Fe8(BO3)8,P1
3838,0.045101566,"['Fe', 'Li', 'O']",mp-771486,3,Li5FeO4,P2_1/c
3839,0.045107997,"['Cr', 'Li', 'O', 'P']",mp-761383,4,Li2CrP2O7,P-1
3840,0.045119929,"['Cr', 'Li', 'O', 'P']",mp-540456,4,LiCr(PO3)3,Cc
3841,0.045121552,"['Li', 'Ni', 'O', 'Si']",mp-766785,4,Li4Si2NiO7,P1
3842,0.045136195,"['La', 'Li', 'Mg', 'O']",mp-1040140,4,LiLaMg30O32,P4/mmm
3843,0.045163263,"['Li', 'O', 'P', 'V']",mp-851253,4,Li4V3P8O29,P1
3844,0.045167869,"['Li', 'O', 'P', 'V']",mp-704203,4,Li2VP4O13,P-1
3845,0.04518985,"['Co', 'Li', 'O']",mp-771219,3,Li(CoO2)2,R3m
3846,0.045209627,"['Li', 'O', 'P', 'Sn']",mp-26871,4,Li2Sn3(P2O7)2,P-1
3847,0.045210626,"['Li', 'Mn', 'O', 'P']",mp-780024,4,LiMn(PO3)3,P-1
3848,0.045225591,"['Co', 'Li', 'O']",mp-763697,3,Li(CoO2)3,C2/m
3849,0.045285329,"['Ga', 'Li', 'O', 'Si']",mp-6241,4,LiGa(SiO3)2,P2_1/c
3850,0.045296045,"['Fe', 'Li', 'O']",mp-762434,3,Li15(FeO6)2,P1
3851,0.045307471,"['Li', 'O', 'P', 'W']",mp-763357,4,LiP2WO8,C2/m
3852,0.045311099,"['La', 'Li', 'Mn', 'O']",mp-771521,4,LiLa6Mn3O14,Pc
3853,0.045314833,"['Li', 'La', 'Ta', 'O']",mp-15901,4,Li2LaTa2O7,I4/mmm
3854,0.045318838,"['Li', 'Mn', 'O', 'P']",mp-585189,4,LiMn4(PO4)3,I-42d
3855,0.045351385,"['Co', 'Li', 'Mn', 'O']",mp-1174791,4,Li6Mn3CoO10,P1
3856,0.045361084,"['Li', 'O', 'P', 'V']",mp-764031,4,Li3V3P8O29,P1
3857,0.045363377,"['Cr', 'Li', 'O', 'Si']",mp-765857,4,LiCr(SiO3)2,P-1
3858,0.045376189,"['Fe', 'Li', 'O', 'Si']",mp-766989,4,LiFe(Si2O5)2,Pnc2
3859,0.045378693,"['C', 'Li', 'Ni', 'O']",mp-763387,4,Li2Ni(CO3)2,Fdd2
3860,0.045381291,"['Fe', 'Li', 'O', 'P']",mp-504218,4,Li6Fe3P8O29,P1
3861,0.045400175,"['Co', 'Li', 'O', 'P']",mp-31592,4,Li3Co3(PO4)4,P2_1/c
3862,0.04540653,"['Co', 'Li', 'O', 'P']",mp-761638,4,Li2CoP2O7,C2/c