,e_above_hull,elements,material_id,nelements,pretty_formula,spacegroup.symbol
2993,0.035345459,"['La', 'Li', 'O', 'Sr']",mp-756936,4,Sr3Li4La5O12,Pm
2994,0.03536326,"['Ba', 'Li', 'O', 'Ti']",mp-767511,4,Ba4Li6Ti19O44,P1
2995,0.03537422,"['Li', 'Mn', 'O']",mp-1100521,3,Li9Mn7O16,P-1
2996,0.035386695,"['Li', 'O', 'V']",mp-19394,3,LiV2O4,Fd-3m
2997,0.035387609,"['Li', 'Mn', 'O']",mp-1195443,3,LiMn4O8,P2_13
2998,0.03542035,"['Fe', 'Li', 'O']",mp-765505,3,Li4Fe2O5,P2_1/c
2999,0.035431677,"['Li', 'O', 'W']",mp-775983,3,Li6WO6,R-3
3000,0.035432884,"['Cr', 'Li', 'O']",mp-770582,3,Li8CrO6,R-3
3001,0.035459648,"['Li', 'O', 'Si', 'Ti']",mp-11206,4,LiTi(SiO3)2,C2/c
3002,0.03546187,"['Co', 'Li', 'Mn', 'O']",mp-1175206,4,Li7Mn4CoO12,P1
3003,0.035462956,"['Li', 'O', 'P', 'V']",mp-1177130,4,Li5V3P8O29,C2
3004,0.035466271,"['Li', 'Mn', 'O', 'P']",mp-778246,4,Li2Mn2(PO4)3,C2/c
3005,0.035467781,"['Li', 'Ni', 'O', 'Si']",mp-767915,4,Li2SiNiO4,Pc
3006,0.035469288,"['Li', 'Mn', 'O']",mp-1174554,3,Li5Mn3O8,C2/m
3007,0.035475135,"['Co', 'Li', 'O']",mp-762605,3,Li9Co13O28,P1
3008,0.035479295,"['Al', 'Fe', 'Li', 'O']",mp-772435,4,Li3Al2FeO6,P-1
3009,0.035506818,"['Co', 'Li', 'O', 'P']",mp-1176801,4,LiCo2(PO4)2,P1
3010,0.035533703,"['Li', 'Mn', 'O', 'P']",mp-1177475,4,Li4MnP2O9,P2/c
3011,0.035534386,"['B', 'Li', 'Mn', 'O']",mp-781598,4,Li3Mn4(BO3)4,P1
3012,0.035540902,"['Li', 'O', 'V']",mp-764746,3,Li5V7O12,C2
3013,0.035544371,"['Co', 'Li', 'Mn', 'O']",mp-1175199,4,Li7Mn4CoO12,P1
3014,0.035554455,"['Li', 'Mn', 'O', 'P']",mp-1101538,4,LiMn(PO3)5,P2_1/c
3015,0.035594903,"['Li', 'Mn', 'O']",mp-1174348,3,Li4Mn3O7,P-1
3016,0.035601496,"['Li', 'Mn', 'O']",mp-1100508,3,Li9Mn7O16,P-1
3017,0.035604021,"['Li', 'Nb', 'O']",mp-772216,3,LiNb8O14,Pbam
3018,0.035612944,"['Li', 'Mn', 'O']",mp-1177832,3,Li3Mn28O56,C2
3019,0.035621423,"['Li', 'O', 'P', 'V']",mp-765084,4,Li5V3P8O29,P1
3020,0.035622705,"['Li', 'Ni', 'O', 'P']",mp-762020,4,LiNiPO4,Pna2_1
3021,0.03562569,"['B', 'Li', 'Mn', 'O']",mp-780102,4,Li2Mn3(BO3)3,P-1
3022,0.03563173,"['B', 'Li', 'Mn', 'O']",mp-780509,4,Li3Mn4(BO3)4,P1
3023,0.035678121,"['Li', 'Mn', 'O']",mp-1100501,3,Li9Mn7O16,P-1
3024,0.035687384,"['Li', 'Mn', 'O', 'P']",mp-705402,4,Li14Mn9(P2O7)8,P-1
3025,0.035704832,"['Li', 'Ni', 'O']",mp-771532,3,Li(NiO2)2,P-1
3026,0.03570846,"['Li', 'Mn', 'O']",mp-1174410,3,Li4Mn3O7,C2/m
3027,0.035709027,"['Co', 'Li', 'Mn', 'O']",mp-1175265,4,Li7Mn4CoO12,C2
3028,0.03573359,"['Li', 'Ni', 'O', 'Si']",mp-1177860,4,Li2SiNiO4,Pna2_1
3029,0.035747109,"['Li', 'Ni', 'O', 'P']",mp-1101495,4,LiNiP2O7,P2_1
3030,0.035756002,"['Li', 'O', 'W']",mp-774144,3,Li(WO3)2,Immm
3031,0.035769546,"['Li', 'Mn', 'O']",mp-762406,3,LiMn4O8,C2/m
3032,0.035773274,"['Li', 'O', 'V']",mp-775075,3,LiV3O8,Pm
3033,0.035778512,"['Li', 'Mn', 'O', 'V']",mp-851270,4,Li9Mn7V12O48,P1
3034,0.035794846,"['Fe', 'K', 'Li', 'O']",mp-770395,4,K2LiFeO3,Cmme
3035,0.035799591,"['Co', 'Li', 'O', 'P']",mp-31604,4,Li2CoP2O7,P2_1/c
3036,0.035808995,"['Li', 'O', 'Ti']",mp-772049,3,Li2Ti2O5,Pbcn
3037,0.035813984,"['Co', 'Li', 'O', 'Ti']",mp-761669,4,Li2Ti3CoO8,R3m
3038,0.035814483,"['Co', 'Li', 'O', 'Sn']",mp-769805,4,Li5Co5(SnO6)2,C2
3039,0.035815958,"['Al', 'Li', 'O', 'Si']",mp-6340,4,LiAl(SiO3)2,C2/c
3040,0.035829385,"['Fe', 'Li', 'O', 'P']",mp-540396,4,Li3Fe(PO4)2,P2_1/c
3041,0.035830749,"['Li', 'O', 'P', 'V']",mp-762968,4,Li5V3P8O29,P1
3042,0.035864336,"['Cr', 'Li', 'O', 'P']",mp-540385,4,Li3Cr2(PO4)3,Ia-3d
3043,0.03588808,"['Li', 'Mn', 'O', 'Sb']",mp-769848,4,Li4Mn5Sb3O16,Cm
3044,0.035901572,"['B', 'Fe', 'Li', 'O']",mp-779305,4,Li2FeBO4,Pna2_1
3045,0.035927678,"['Li', 'Mn', 'O']",mp-1100506,3,Li9Mn7O16,P-1
3046,0.035931814,"['Li', 'Nb', 'O']",mp-37399,3,Li7NbO6,R3
3047,0.035932626,"['Li', 'O', 'V']",mp-762252,3,Li4V7O12,P2_1
3048,0.035953131,"['La', 'Li', 'Mn', 'O']",mp-770950,4,LiLa4MnO8,I4_1/amd
3049,0.035957208,"['Co', 'Li', 'O', 'P']",mp-31549,4,Li2CoP2O7,P1
3050,0.035964443,"['Co', 'Li', 'O', 'P']",mp-18915,4,LiCoPO4,Pnma
3051,0.03596598,"['Gd', 'Li', 'Mo', 'O']",mp-1210959,4,LiGd(MoO4)2,P2/c
3052,0.035979609,"['Li', 'Ni', 'O']",mp-768079,3,Li7(NiO2)11,P-1
3053,0.03598,"['Li', 'O', 'P', 'W']",mp-762289,4,Li2P2WO8,P-3
3054,0.036007327,"['Fe', 'Li', 'O', 'Si']",mp-761705,4,Li2Fe4Si4O13,P-1
3055,0.036039198,"['Li', 'O', 'P', 'V']",mp-766630,4,Li5V3P8O29,P1
3056,0.036050506,"['La', 'Li', 'Mn', 'O']",mp-769845,4,LiLa4MnO8,Cmmm
3057,0.036053317,"['Co', 'Li', 'O']",mp-1173888,3,Li2CoO3,C2
3058,0.036055697,"['Li', 'Ni', 'O', 'P']",mp-762042,4,LiNiPO4,Pca2_1
3059,0.036061023,"['Li', 'O', 'P', 'V']",mp-1177170,4,Li5V3P8O29,P1
3060,0.03607028,"['B', 'Li', 'Mn', 'O']",mp-780529,4,Li3Mn4(BO3)4,P-1
3061,0.036086667,"['Fe', 'Li', 'O', 'Ti']",mp-771201,4,Li3Ti(FeO2)4,C2/m
3062,0.036096914,"['Li', 'O', 'P', 'Sn']",mp-684503,4,LiSn(PO3)3,P2_12_12_1
3063,0.036101809,"['Li', 'O', 'P', 'Sb']",mp-26586,4,Li3Sb2P5O18,P1
3064,0.03611192,"['Al', 'Li', 'O', 'Ti']",mp-1222338,4,LiTiAlO4,Imma
3065,0.036122943,"['Li', 'O', 'P', 'V']",mp-851064,4,Li5V3P8O29,C2
3066,0.036165942,"['Li', 'O', 'P', 'V']",mp-763374,4,LiVP2O7,P2_1/c
3067,0.036173526,"['Co', 'Li', 'O', 'Sn']",mp-771198,4,Li5Co3(SnO5)2,P-1
3068,0.036189092,"['Cu', 'La', 'Li', 'O']",mp-775959,4,LiLa7(CuO7)2,C2/m
3069,0.03619052,"['Co', 'Li', 'Mn', 'O']",mp-1175203,4,Li7Mn4CoO12,P1
3070,0.036196837,"['Li', 'O', 'Ti', 'Zn']",mp-1222642,4,Li2Ti3ZnO8,R3m
3071,0.036202205,"['Li', 'Mn', 'O']",mp-762412,3,Li2Mn3O6,C2/m
3072,0.036202869,"['Cu', 'Li', 'O', 'P']",mp-26823,4,Li2Cu3(P2O7)2,P2_1/c
3073,0.036210131,"['Li', 'Nb', 'O']",mp-760701,3,LiNbO3,C2/c
3074,0.036217405,"['Li', 'Fe', 'P', 'O']",mp-761456,4,Li2FeP2O7,P2_1/c
3075,0.036222364,"['Li', 'O', 'P', 'V']",mp-1177193,4,Li5V3P8O29,P1
3076,0.036253405,"['Co', 'Li', 'O', 'P']",mp-585397,4,LiCo3P3O11,P2_1/c
3077,0.036281606,"['Li', 'Mn', 'O']",mp-1222484,3,LiMn8O16,P-4m2
3078,0.036288946,"['Fe', 'Li', 'O', 'P']",mp-776111,4,Li8Fe7(PO4)8,Cm
3079,0.036294371,"['B', 'Li', 'Mn', 'O']",mp-781957,4,Li3Mn4(BO3)4,P1
3080,0.03629757,"['Fe', 'Li', 'O', 'P']",mp-762652,4,LiFe2P3O11,C2
3081,0.036304207,"['Li', 'O', 'Si', 'V']",mp-767251,4,Li2VSiO5,Pmc2_1
3082,0.036314486,"['Co', 'Li', 'O']",mp-1173881,3,Li2CoO3,P-1
3083,0.036317044,"['Li', 'O', 'P', 'Sb']",mp-26745,4,LiSbP2O7,P-1
3084,0.036379214,"['Li', 'O', 'P', 'V']",mp-1177582,4,Li3V3P8O29,Cc
3085,0.036382511,"['Co', 'Li', 'Mn', 'O']",mp-1175160,4,Li7Mn4CoO12,P-1
3086,0.036400059,"['Li', 'Mn', 'O', 'P']",mp-540438,4,LiMn(PO3)3,P-1
3087,0.036422854,"['Co', 'Li', 'O']",mp-1173890,3,Li2CoO3,C2/m
3088,0.036428324,"['Co', 'Li', 'Mn', 'O']",mp-1173988,4,Li3Mn2CoO6,C2/m
3089,0.036438766,"['Li', 'O', 'Sc', 'V']",mp-850117,4,LiScVO4,Imma
3090,0.036461357,"['B', 'Li', 'Mn', 'O']",mp-850881,4,Li2Mn3(BO3)3,P-1
3091,0.03646772,"['Li', 'Mn', 'O']",mp-762537,3,LiMn6O12,C2
3092,0.036491117,"['Co', 'Li', 'O', 'Si']",mp-764642,4,Li2CoSiO4,I-42m
3093,0.036510459,"['Li', 'O', 'P', 'Sn']",mp-684470,4,Li3Sn2P5O16,P2/c
3094,0.036511475,"['Li', 'Mn', 'O', 'V']",mp-1178076,4,Li2MnV3O8,P1
3095,0.036517713,"['Li', 'Mn', 'O', 'P']",mp-774433,4,LiMnPO5,Pnma
3096,0.036521692,"['Li', 'O', 'P', 'Sn']",mp-673071,4,Li2SnP2O7,P-1
3097,0.036522611,"['Cr', 'Cu', 'Li', 'O']",mp-769804,4,Li3Cr(CuO2)4,C2/m
3098,0.036534277,"['Li', 'Mn', 'O']",mp-1100486,3,Li9Mn7O16,C2/m
3099,0.036537619,"['Li', 'O', 'Ti']",mp-766834,3,Li7Ti16O32,Cm
3100,0.036537678,"['Cu', 'Li', 'O', 'P']",mp-672966,4,LiCu(PO3)4,P1
3101,0.036545373,"['Li', 'O', 'P', 'V']",mp-1177051,4,Li5V3P8O29,P1
3102,0.036551102,"['Li', 'Mn', 'O']",mp-1100488,3,Li9Mn7O16,C2/m
3103,0.036556911,"['Li', 'Mn', 'O']",mp-1100495,3,Li9Mn7O16,C2/m
3104,0.036585497,"['Li', 'Ni', 'O', 'Si']",mp-861659,4,Li2Si3Ni3O10,C2/c
3105,0.03658884,"['Li', 'Mn', 'O', 'P']",mp-540517,4,LiMn5(P2O7)4,P-1
3106,0.0365955,"['Cr', 'Li', 'O', 'P']",mp-705001,4,LiCrP2O7,P2_1/c
3107,0.036604232,"['Li', 'O', 'P', 'Sb']",mp-673073,4,LiSbP2O7,P2_1/c
3108,0.036606755,"['B', 'Fe', 'Li', 'O']",mp-764474,4,Li5Fe8(BO3)8,P1
3109,0.036607914,"['Co', 'Li', 'O', 'Ti']",mp-764281,4,Li5Ti2Co3O10,P1
3110,0.036622445,"['B', 'Li', 'Mn', 'O']",mp-775182,4,Li3Mn4(BO3)4,P1
3111,0.036636681,"['Li', 'O', 'P', 'V']",mp-1177169,4,Li5V3P8O29,P1
3112,0.03665064,"['Cr', 'Li', 'O', 'P']",mp-540381,4,LiCrPO4,C2/c
3113,0.036652998,"['Co', 'Li', 'Mn', 'O']",mp-1174134,4,Li5Mn2CoO8,P2/m
3114,0.036662253,"['Li', 'Mn', 'O']",mp-25015,3,LiMn2O4,Fd-3m
3115,0.036683983,"['Co', 'Li', 'Mn', 'O']",mp-1174768,4,Li6Mn3CoO10,P1
3116,0.036687261,"['Li', 'O', 'P', 'V']",mp-765088,4,Li5V3P8O29,P1
3117,0.036694839,"['Li', 'O', 'P', 'Sb']",mp-684477,4,Li2Sb(PO3)5,P2_1/m
3118,0.036699697,"['Li', 'O', 'Ti', 'V']",mp-771549,4,Li2Ti3VO8,P6_3mc
3119,0.036703454,"['Li', 'Nb', 'O', 'Zn']",mp-759322,4,Li2Nb4ZnO12,P1
3120,0.03671459,"['Fe', 'Li', 'Ni', 'O']",mp-765833,4,Li6Fe5NiO12,C2/m
3121,0.036736962,"['Li', 'Mn', 'O', 'Ti']",mp-1177884,4,Li2Ti3MnO8,R3m
3122,0.036746373,"['Li', 'Mn', 'O']",mp-35530,3,LiMn4O8,F-43m
3123,0.036758581,"['Li', 'Fe', 'O']",mp-774101,3,LiFeO2,P6_3mc
3124,0.036768,"['Li', 'Mn', 'Ni', 'O']",mp-765551,4,Li2MnNiO4,Imma
3125,0.036772826,"['Co', 'La', 'Li', 'O']",mp-19206,4,LiLa4CoO8,Cmmm
3126,0.036774236,"['Li', 'Mn', 'O', 'Sb']",mp-764291,4,Li6Mn5SbO12,C2/m
3127,0.036774825,"['Li', 'O', 'P', 'V']",mp-765503,4,Li5V3P8O29,P1
3128,0.036777901,"['Cr', 'Li', 'O', 'P']",mp-868663,4,Li3Cr4(PO4)6,P1
3129,0.036786276,"['Li', 'Na', 'O', 'Ru']",mp-556097,4,NaLi2(RuO2)6,P-3
3130,0.036790023,"['Li', 'Ni', 'O', 'Ti']",mp-777076,4,Li2TiNiO4,P2/m
3131,0.036796283,"['Li', 'O', 'Zr']",mp-756344,3,Li4ZrO4,Cmcm
3132,0.036798214,"['Li', 'Mn', 'O']",mp-1174387,3,Li4Mn3O7,C2/m
3133,0.036803669,"['Li', 'Mn', 'O']",mp-771858,3,LiMnO2,C2/m
3134,0.036811707,"['Li', 'O', 'V']",mp-762453,3,Li11V16O32,P1
3135,0.036835243,"['Li', 'O', 'Sb', 'W']",mp-19694,4,LiSbWO6,Pbcn
3136,0.036846194,"['Li', 'O', 'P', 'V']",mp-775384,4,Li5V3P8O29,P1
3137,0.03685403,"['Co', 'Li', 'O', 'P']",mp-31571,4,LiCoP2O7,P2_1/c
3138,0.036865045,"['Li', 'Mn', 'O', 'P']",mp-778864,4,Li2Mn3(PO4)3,C2/c
3139,0.036869611,"['Li', 'O', 'P', 'V']",mp-774177,4,Li5V3P8O29,P1
3140,0.036880304,"['Li', 'O', 'P', 'V']",mp-766649,4,Li5V3P8O29,P1
3141,0.036883338,"['Co', 'Li', 'O', 'P']",mp-31600,4,LiCo(PO3)4,C2/m
3142,0.036888798,"['B', 'Li', 'Mn', 'O']",mp-780135,4,Li2Mn3(BO3)3,P-1
3143,0.03690201,"['Li', 'Mn', 'Ni', 'O']",mp-762625,4,Li4Mn3(NiO4)3,P-1
3144,0.036931367,"['Li', 'Mn', 'O', 'V']",mp-763955,4,Li4MnV3O8,C2/m
3145,0.036942741,"['Li', 'Mn', 'O']",mp-1222562,3,Li3Mn8O16,P-4m2
3146,0.036949602,"['Li', 'O', 'P', 'W']",mp-763457,4,LiP2WO7,P2_1/c
3147,0.036955328,"['K', 'Li', 'Nb', 'O']",mp-1178166,4,K2LiNbO4,P1
3148,0.036957427,"['Fe', 'Li', 'O', 'Si']",mp-766714,4,Li3Fe(Si2O5)3,Cmce
3149,0.036961534,"['Co', 'La', 'Li', 'O']",mp-767974,4,LiLa4CoO8,I4_1/amd
3150,0.036980076,"['Fe', 'Li', 'Ni', 'O']",mp-762822,4,Li2FeNi3O8,C2/m
3151,0.036994746,"['Li', 'Mn', 'O', 'P']",mp-540415,4,LiMnP2O7,P2_1/c
3152,0.036995106,"['Li', 'O', 'P', 'V']",mp-766934,4,Li5V3P8O29,P1
3153,0.036998623,"['Li', 'Ni', 'O']",mp-850945,3,Li47(NiO4)8,P1
3154,0.037001309,"['Co', 'Li', 'Ni', 'O']",mp-1178027,4,Li2CoNi3O8,P-1
3155,0.037008707,"['Fe', 'Li', 'Nb', 'O']",mp-776115,4,Li2NbFe3O8,R-3m
3156,0.037012771,"['Co', 'Li', 'O']",mp-769436,3,Li5(CoO2)8,P1
3157,0.037014181,"['Cr', 'Li', 'O', 'Ti']",mp-773712,4,Li2TiCr3O8,P6_3mc
3158,0.037015116,"['Li', 'Mo', 'O', 'P']",mp-540296,4,Li2Mo(PO4)2,P2_1
3159,0.037020113,"['Li', 'Mn', 'O']",mp-1002572,3,LiMnO2,Pnnm
3160,0.037037591,"['Fe', 'Li', 'Mn', 'O']",mp-764386,4,Li6Mn(FeO3)2,C2/m
3161,0.037067783,"['Li', 'Mn', 'O']",mp-1100507,3,Li9Mn7O16,P-1
3162,0.037081876,"['Li', 'O', 'P', 'V']",mp-762969,4,Li5V3P8O29,P1
3163,0.037082391,"['Li', 'Nb', 'O', 'V']",mp-761817,4,LiNbVO4,P4_322
3164,0.03708873,"['Li', 'O', 'P', 'V']",mp-1177186,4,Li5V3P8O29,P1
3165,0.037088788,"['C', 'Fe', 'Li', 'O']",mp-765398,4,Li2Fe2(CO3)3,Amm2
3166,0.037092394,"['Fe', 'Li', 'O', 'P']",mp-540020,4,LiFe4(PO4)3,C2/c
3167,0.037137289,"['Li', 'Ni', 'O', 'P']",mp-762004,4,LiNiPO4,Pc
3168,0.037170163,"['Li', 'Mn', 'O', 'W']",mp-775546,4,Li4Mn(WO4)3,P1
3169,0.03717569,"['Fe', 'Li', 'O', 'Si']",mp-1176885,4,Li7Fe6(SiO4)6,P1
3170,0.037203502,"['Cr', 'Li', 'Mn', 'O']",mp-771517,4,Li4Mn3Cr5O16,Cm
3171,0.037206891,"['Cu', 'Li', 'O', 'V']",mp-775553,4,Li2V3CuO8,P2_12_12_1
3172,0.037224284,"['Li', 'Mo', 'O']",mp-35899,3,LiMoO2,Pnnm
3173,0.03723142,"['Co', 'Li', 'O', 'Sn']",mp-772511,4,Li4Co3Sn5O16,P1
3174,0.037231797,"['Li', 'Co', 'Si', 'O']",mp-764634,4,Li2CoSiO4,C2/m
3175,0.037244619,"['Fe', 'Li', 'O', 'Si']",mp-762644,4,LiFeSiO4,P6_422
3176,0.037266494,"['Li', 'Mn', 'O', 'P']",mp-540188,4,LiMnP2O7,P1
3177,0.03732001,"['Co', 'Cr', 'Li', 'O']",mp-762609,4,Li2CrCo3O8,C2
3178,0.037335999,"['B', 'Li', 'Mn', 'O']",mp-777937,4,Li3Mn4(BO3)4,P1
3179,0.037336171,"['B', 'Li', 'Mn', 'O']",mp-778867,4,Li3Mn4(BO3)4,P1
3180,0.037337349,"['C', 'Li', 'O', 'V']",mp-1177806,4,Li2VCO5,P1
3181,0.037341413,"['Fe', 'Li', 'O', 'W']",mp-1177418,4,Li4Fe(WO4)3,P2
3182,0.037354714,"['Li', 'Mn', 'O', 'P']",mp-861552,4,Li3Mn(PO4)2,P-1
3183,0.037354847,"['Fe', 'Li', 'O', 'P']",mp-540073,4,LiFe(PO3)4,C2/c
3184,0.037368157,"['Li', 'O', 'Si', 'V']",mp-767929,4,Li3VSi2O7,P2_1
3185,0.037368945,"['Li', 'Ni', 'O']",mp-762388,3,Li2(NiO2)3,Cc
3186,0.037377072,"['Li', 'Ni', 'O']",mp-762450,3,Li6(NiO2)11,P1
3187,0.037387306,"['Cu', 'Li', 'O']",mp-759720,3,LiCuO2,P-1
3188,0.03739099,"['Co', 'Li', 'Mn', 'O']",mp-1175272,4,Li7Mn4CoO12,P2
3189,0.037391654,"['Li', 'O', 'P', 'V']",mp-1177248,4,Li5V3P8O29,P1
3190,0.037407172,"['Li', 'O', 'P', 'V']",mp-765372,4,Li5V3P8O29,C2/c
3191,0.037410854,"['Li', 'Mn', 'O']",mp-775467,3,Li5MnO4,Aea2
3192,0.037414094,"['Fe', 'K', 'Li', 'O']",mp-763674,4,K8Li3(FeO4)4,P1
3193,0.037420363,"['B', 'Co', 'Li', 'O']",mp-1177472,4,Li4Co(BO3)2,Pnnm
3194,0.03742067,"['Li', 'O', 'Si', 'V']",mp-761611,4,Li3V(Si2O5)3,Cmce
3195,0.037435833,"['Li', 'O', 'P', 'V']",mp-1177250,4,Li5V3P8O29,P1
3196,0.037446725,"['Li', 'O', 'P', 'V']",mp-1177550,4,Li4V3P8O29,Cc
3197,0.037450586,"['Li', 'Mn', 'O']",mp-780186,3,Li9Mn10O20,P1
3198,0.037474631,"['Li', 'Mn', 'O', 'P']",mp-31953,4,Li2MnP2O7,P1
3199,0.03747814,"['Li', 'Mo', 'O']",mp-690493,3,LiMoO2,P2_1/c
3200,0.037482107,"['Li', 'Ni', 'O', 'V']",mp-777896,4,Li2V3NiO8,P31c
3201,0.0374832,"['Fe', 'Li', 'O', 'Si']",mp-1177702,4,Li3Fe2(SiO4)2,P2_1/c
3202,0.03749147,"['Li', 'Cu', 'O']",mp-753848,3,Li(CuO)3,P4/nmm
3203,0.037562576,"['B', 'Co', 'Li', 'O']",mp-770270,4,LiCoBO3,P1
3204,0.037564818,"['Fe', 'Li', 'O', 'Si']",mp-763734,4,LiFeSiO4,P6_422
3205,0.037577135,"['Li', 'Nb', 'O']",mp-686160,3,Li17Nb20O60,P1
3206,0.037599311,"['B', 'Li', 'O', 'V']",mp-772429,4,Li2V(BO2)5,P2_1/c
3207,0.037609814,"['Fe', 'Li', 'O', 'Ti']",mp-770739,4,LiTiFeO4,Pnma
3208,0.037611725,"['B', 'Li', 'Mn', 'O']",mp-780335,4,Li3Mn4(BO3)4,P-1
3209,0.037616505,"['Li', 'Mn', 'O']",mp-762407,3,Li6Mn5O10,Cm
3210,0.03761914,"['Li', 'Mn', 'O', 'P']",mp-31961,4,LiMn2(PO3)5,Pc
3211,0.037623643,"['La', 'Li', 'O', 'Sr']",mp-761869,4,Sr3Li3La5O12,Pm
3212,0.03762684,"['Co', 'Li', 'Mn', 'O']",mp-1175217,4,Li7Mn4CoO12,P1
3213,0.037642827,"['Cu', 'Li', 'Nb', 'O']",mp-1222641,4,Li3Nb4CuO12,P1
3214,0.037646276,"['Li', 'Mn', 'O']",mp-1174330,3,Li4Mn3O7,P-1
3215,0.03768483,"['B', 'Li', 'O', 'V']",mp-770325,4,LiVB2O5,P2_1/c
3216,0.037692891,"['Li', 'O', 'P', 'V']",mp-1177147,4,Li5V3P8O29,P1
3217,0.037732886,"['Li', 'Mo', 'O', 'P']",mp-540038,4,LiMo(PO4)2,P2_1/c
3218,0.037754863,"['Li', 'Ni', 'O', 'Si']",mp-861603,4,Li2SiNiO4,Pna2_1
3219,0.037759094,"['Co', 'Li', 'Mn', 'O']",mp-1175222,4,Li7Mn4CoO12,P1
3220,0.03776195,"['Li', 'O', 'P', 'V']",mp-765169,4,Li5V3P8O29,P1
3221,0.037792023,"['Li', 'Ni', 'O']",mp-762165,3,Li3(NiO2)5,P-1
3222,0.037793235,"['Fe', 'Li', 'O', 'Si']",mp-761475,4,Li2Fe2Si5O13,P-1
3223,0.037794073,"['Cr', 'Li', 'O', 'Ti']",mp-770070,4,Li3TiCr3O8,R-3m
3224,0.037821041,"['Co', 'Li', 'Mn', 'O']",mp-778023,4,LiMnCo3O8,R-3m
3225,0.037822286,"['Li', 'O', 'P', 'V']",mp-765045,4,Li5V3P8O29,P1
3226,0.037831315,"['Li', 'Mn', 'O', 'P']",mp-697807,4,LiMn4P7O24,P-1
3227,0.037831773,"['Li', 'O', 'Ti', 'V']",mp-762546,4,Li4Ti2V3O10,P-1
3228,0.037836419,"['Li', 'Ni', 'O', 'P']",mp-762170,4,Li2NiP2O7,P2_1/c
3229,0.03783743,"['Li', 'O', 'P', 'W']",mp-763526,4,LiP(WO4)2,P2_1
3230,0.037842987,"['Li', 'O', 'W']",mp-780046,3,Li8WO6,R-3
3231,0.037845081,"['Li', 'Mn', 'O']",mp-1174299,3,Li4Mn3O7,C2/m
3232,0.037850726,"['Co', 'Li', 'Mn', 'O']",mp-1174385,4,Li5Mn2CoO8,P2
3233,0.037866448,"['Al', 'Fe', 'Li', 'O']",mp-772430,4,Li2AlFeO4,P2_1/c
3234,0.037872421,"['Fe', 'Li', 'O', 'Ti']",mp-762758,4,Li4Ti2Fe3O10,P-1
3235,0.037874591,"['Li', 'Mn', 'O', 'P']",mp-767614,4,Li3Mn4(PO4)6,P1
3236,0.037895569,"['Co', 'Li', 'O', 'P']",mp-31548,4,LiCoP2O7,P1
3237,0.0378984,"['B', 'Cr', 'Li', 'O']",mp-769703,4,LiCrBO3,P-6
3238,0.037930637,"['Cu', 'Li', 'Ni', 'O']",mp-861850,4,Li3CuNi3O8,P-1
3239,0.037971343,"['Fe', 'Li', 'Mn', 'O']",mp-770029,4,LiMn2Fe3O8,Imm2
3240,0.037974924,"['Co', 'Li', 'Mn', 'O']",mp-765971,4,Li5Mn5(CoO6)2,C2
3241,0.037981265,"['Li', 'Mn', 'O', 'P']",mp-1180529,4,LiMnPO5,P-1
3242,0.037991988,"['Li', 'Mn', 'O', 'P']",mp-32017,4,Li3Mn3(PO4)4,P2_1
3243,0.038036757,"['As', 'Li', 'O']",mp-559767,3,LiAsO3,C2/c
3244,0.038036913,"['Li', 'O', 'P', 'V']",mp-705334,4,Li2V(PO3)5,Pc
3245,0.038037563,"['C', 'Co', 'Li', 'O']",mp-763828,4,Li2Co(CO3)2,P2_1/c
3246,0.038041796,"['Li', 'Ni', 'O', 'Sn']",mp-769898,4,Li2Ni3SnO8,P6_3mc
3247,0.038044651,"['Li', 'O', 'P', 'V']",mp-504315,4,LiV6P7O24,P2_1/m
3248,0.038072041,"['Li', 'O', 'Ta']",mp-757158,3,LiTa3O8,Pmma
3249,0.038074598,"['C', 'Li', 'Mn', 'O']",mp-766986,4,Li2Mn(CO3)2,Fdd2
3250,0.038106107,"['As', 'Li', 'O', 'V']",mp-1177164,4,Li4VAs2O9,P4/ncc
3251,0.038166143,"['Co', 'Li', 'Mn', 'O']",mp-1175186,4,Li7Mn4CoO12,P1
3252,0.038186771,"['Co', 'Cr', 'Li', 'O']",mp-762011,4,LiCrCoO4,Imma
3253,0.038195354,"['Li', 'O', 'V']",mp-764772,3,LiVO2,P-1
3254,0.038207505,"['Co', 'Cr', 'Li', 'O']",mp-763181,4,LiCrCo3O8,R-3m
3255,0.038216852,"['B', 'Fe', 'Li', 'O']",mp-769696,4,Li2FeBO4,C222_1
3256,0.038225979,"['Co', 'Cr', 'Li', 'O']",mp-1178061,4,Li2Cr3CoO8,P1
3257,0.038226216,"['Li', 'V', 'Cr', 'O']",mp-775047,4,Li2VCrO4,I-4m2
3258,0.03822663,"['B', 'Li', 'Mn', 'O']",mp-777944,4,Li3Mn4(BO3)4,P1
3259,0.038242887,"['Li', 'Ni', 'O', 'Ti']",mp-763760,4,Li3TiNi3O8,C2/m
3260,0.038247694,"['Li', 'O', 'P', 'V']",mp-766629,4,Li5V3P8O29,P1
3261,0.038254222,"['Cr', 'Li', 'O', 'Si']",mp-761642,4,Li2Cr3Si3O10,C2/c
3262,0.038255968,"['Li', 'Mo', 'O', 'P']",mp-504383,4,Li7Mo4P9O32,P-42_1c
3263,0.038269146,"['Fe', 'Li', 'O', 'P']",mp-767832,4,LiFe2(PO4)2,Pca2_1
3264,0.038289244,"['Li', 'Mg', 'O', 'Ti']",mp-1222649,4,Li2MgTi3O8,R3m
3265,0.03829457,"['Fe', 'Li', 'O', 'Si']",mp-762645,4,LiFeSiO4,Pc
3266,0.038333139,"['Cu', 'Li', 'O']",mp-765613,3,Li(CuO)3,I4/mmm
3267,0.038338097,"['B', 'Li', 'Mn', 'O']",mp-1177638,4,Li3Mn4(BO3)4,P-1
3268,0.038346756,"['Fe', 'Li', 'O', 'P']",mp-540026,4,Li2FeP2O7,C2/m
3269,0.038348786,"['B', 'Li', 'Mn', 'O']",mp-776713,4,Li3Mn4(BO3)4,P1
3270,0.038383794,"['Eu', 'Li', 'O', 'Ti']",mp-619100,4,LiEuTiO4,Pbcm
3271,0.038388513,"['Cr', 'Li', 'O', 'P']",mp-697796,4,Li2Cr5(PO4)4,P-1
3272,0.038393848,"['Fe', 'Li', 'O', 'P']",mp-773942,4,Li3Fe2(PO4)3,C2
3273,0.038394795,"['Li', 'O', 'Ti']",mp-752891,3,LiTi3O6,Fddd
3274,0.038398626,"['Li', 'Mn', 'O', 'P']",mp-853271,4,Li5Mn2(PO4)3,P2_1/c
3275,0.038405655,"['Li', 'O', 'P', 'V']",mp-32530,4,Li3V2(PO4)3,P2/c
3276,0.038415383,"['Co', 'Li', 'Mn', 'O']",mp-1174204,4,Li4Mn3CoO8,P-1
3277,0.038419671,"['B', 'Li', 'Mn', 'O']",mp-779299,4,Li3Mn4(BO3)4,Pc
3278,0.038429029,"['Li', 'O', 'P', 'V']",mp-1177050,4,Li5V3P8O29,P1
3279,0.038477498,"['La', 'Li', 'O', 'Ti']",mp-767070,4,LiLa5Ti8O24,P1
3280,0.038492576,"['Li', 'Ni', 'O']",mp-771927,3,Li7Ni5O12,C2
3281,0.038501786,"['Li', 'O', 'P', 'Sn']",mp-673101,4,LiSn4(PO4)3,P6_3
3282,0.038502735,"['Co', 'Li', 'Mn', 'O']",mp-1174169,4,Li4Mn3CoO8,C2/m
3283,0.038508096,"['C', 'Li', 'O', 'V']",mp-767990,4,LiV(CO3)2,C2/c
3284,0.038508149,"['Fe', 'Li', 'O', 'Ti']",mp-772368,4,Li2TiFe3O8,P6_3mc