,e_above_hull,elements,material_id,nelements,pretty_formula,spacegroup.symbol
965,0.007493944,"['Dy', 'Li', 'O']",mp-10251,3,LiDyO2,P2_1/c
966,0.007519164,"['Cr', 'Li', 'O', 'V']",mp-769641,4,Li2VCrO4,C2/c
967,0.007529144,"['Co', 'Li', 'O', 'Ru']",mp-1222544,4,Li4CoRuO6,C2
968,0.007537221,"['Li', 'Ni', 'O']",mp-25592,3,LiNiO2,R-3m
969,0.007545061,"['Li', 'Na', 'O', 'V']",mp-776848,4,Na5LiV6O18,P1
970,0.007549101,"['Li', 'Mn', 'O', 'Rb']",mp-776908,4,RbLiMn3O4,P1
971,0.007553797,"['Co', 'Li', 'O', 'P']",mp-1101526,4,LiCo2(PO3)5,Pc
972,0.00758886,"['Li', 'O', 'P', 'V']",mp-765022,4,LiVPO4,Pna2_1
973,0.007603055,"['Li', 'Mo', 'O', 'P']",mp-540137,4,LiMoPO5,P-1
974,0.00762714,"['Co', 'Fe', 'Li', 'O']",mp-861570,4,Li2FeCo3O8,R-3m
975,0.007651084,"['Fe', 'Li', 'O', 'Si']",mp-861468,4,LiFe(Si2O5)2,P2/c
976,0.007654143,"['Cr', 'Li', 'Mn', 'O']",mp-779327,4,Li32Mn11Cr5O48,P1
977,0.007660078,"['Cr', 'Li', 'Mn', 'O']",mp-769505,4,Li7Mn10Cr6O32,P1
978,0.007664039,"['Li', 'O', 'Ti']",mp-530165,3,Li13Ti22O48,Cm
979,0.007673127,"['Li', 'Mo', 'O', 'P']",mp-504181,4,LiMo8(P2O11)4,P-1
980,0.007690959,"['Li', 'Mn', 'Ni', 'O']",mp-1177345,4,Li4MnNi3O8,R-3m
981,0.007701166,"['Al', 'Cr', 'Li', 'O']",mp-769984,4,Li4AlCr3O8,C2/m
982,0.007733105,"['Ge', 'Li', 'O', 'Sc']",mp-504948,4,LiScGeO4,Pnma
983,0.00774848,"['Al', 'Li', 'O', 'Si']",mp-6327,4,LiAlSiO4,P6_422
984,0.007765554,"['Cr', 'Li', 'O', 'V']",mp-769620,4,Li2VCrO4,P1
985,0.007765787,"['Li', 'Mg', 'Mn', 'O']",mp-1036220,4,LiMg14MnO16,Pmmm
986,0.007787477,"['Cr', 'Li', 'O', 'V']",mp-768057,4,Li2VCrO4,P-1
987,0.007795489,"['Co', 'Cr', 'Li', 'O']",mp-770264,4,Li4Cr3CoO8,P-1
988,0.007821281,"['Co', 'Cr', 'Li', 'O']",mp-770355,4,Li4Cr3CoO8,P-1
989,0.007832495,"['Fe', 'Li', 'Ni', 'O']",mp-770987,4,Li3Fe(NiO2)4,C2/m
990,0.007865309,"['Cr', 'Li', 'Mn', 'O']",mp-771203,4,Li4MnCr3O8,C2/m
991,0.007872266,"['Cr', 'Li', 'Mn', 'O']",mp-1177917,4,Li32Mn11Cr5O48,C2
992,0.007884519,"['Co', 'Li', 'Ni', 'O']",mp-868138,4,Li4Co3NiO8,R-3m
993,0.007900021,"['Li', 'Ni', 'O', 'V']",mp-780215,4,LiVNiO4,Cmcm
994,0.007937284,"['Fe', 'Li', 'O', 'Si']",mp-763264,4,Li2FeSiO4,P2_1
995,0.007961898,"['La', 'Li', 'Mo', 'O']",mp-744260,4,LiLa(MoO4)2,Pbca
996,0.007975476,"['Cr', 'Li', 'O', 'V']",mp-1177371,4,Li4V3CrO8,R-3m
997,0.008019619,"['Co', 'Li', 'Ni', 'O']",mp-771785,4,Li3Co(NiO2)4,C2/m
998,0.008065597,"['Co', 'Li', 'O']",mp-1175419,3,Li9Co7O16,P-1
999,0.008068451,"['Fe', 'Li', 'O', 'V']",mp-775234,4,Li3V3(FeO6)2,P2_1/c
1000,0.008081449,"['Li', 'O', 'P', 'Zr']",mp-759280,4,LiZr2(PO4)3,P-1
1001,0.008116918,"['Al', 'Li', 'O', 'P']",mp-560209,4,Li9Al3P8O29,P-3c1
1002,0.008125395,"['Li', 'Nb', 'O']",mp-676694,3,LiNbO3,P1
1003,0.00813084,"['Fe', 'Li', 'Mn', 'O']",mp-763910,4,Li4MnFe3O8,C2/m
1004,0.008145258,"['Cr', 'Li', 'Mn', 'O']",mp-779106,4,Li32Mn11Cr5O48,C2
1005,0.008148992,"['Al', 'Cr', 'Li', 'O']",mp-770341,4,Li4AlCr3O8,R-3m
1006,0.008197462,"['Li', 'O', 'P', 'W']",mp-763463,4,LiP4WO12,C2/c
1007,0.008206626,"['Li', 'Ni', 'O']",mp-764767,3,LiNiO2,C2/m
1008,0.00822427,"['Cr', 'Li', 'O', 'V']",mp-774098,4,LiVCrO4,Imma
1009,0.008229825,"['As', 'Cr', 'Li', 'O']",mp-779404,4,Li3Cr2(AsO4)3,Ia-3d
1010,0.008238491,"['Cr', 'Li', 'Nb', 'O']",mp-775164,4,Li2NbCr3O8,P4_332
1011,0.00825604,"['Cr', 'Li', 'Mn', 'O']",mp-779772,4,Li32Mn11Cr5O48,P1
1012,0.008293544,"['Li', 'O', 'P', 'Ti']",mp-773843,4,LiTi2(PO4)3,P2_12_12
1013,0.008298424,"['Cr', 'Li', 'Mn', 'O']",mp-1177783,4,Li32Mn11Cr5O48,P1
1014,0.008354409,"['Co', 'Cr', 'Li', 'O']",mp-770340,4,Li4Cr3CoO8,P-1
1015,0.008361168,"['Li', 'O', 'Sb', 'V']",mp-774145,4,Li2V3SbO8,P6_3mc
1016,0.008390397,"['B', 'Li', 'O', 'Zn']",mp-1222376,4,LiZnBO3,Cc
1017,0.00840281,"['Li', 'O', 'P', 'Ti']",mp-774539,4,LiTi2(PO4)3,P1
1018,0.008418773,"['Li', 'Ni', 'O']",mp-769727,3,Li3(NiO2)4,C2/m
1019,0.008437218,"['Li', 'Mn', 'O']",mp-641353,3,LiMn2O4,Fddd
1020,0.008450282,"['Cu', 'Li', 'O']",mp-758475,3,Li4(CuO2)3,Cm
1021,0.008455843,"['Li', 'Mn', 'O', 'V']",mp-1177891,4,Li2MnV3O8,R3
1022,0.008476541,"['Fe', 'Li', 'O', 'P']",mp-31890,4,Li4Fe(PO4)2,P2_1/c
1023,0.008484359,"['Co', 'Cr', 'Li', 'O']",mp-770234,4,Li4Cr3CoO8,P-1
1024,0.008507265,"['Ga', 'Li', 'Mo', 'O']",mp-565795,4,LiGa(MoO4)2,P-1
1025,0.008519464,"['Li', 'Hf', 'O']",mp-770997,3,Li2HfO3,C2/m
1026,0.008557456,"['Co', 'Cr', 'Li', 'O']",mp-770255,4,Li4Cr3CoO8,P-1
1027,0.008562713,"['Li', 'Ni', 'O', 'Sn']",mp-771613,4,LiNiSnO4,Imma
1028,0.008583217,"['Li', 'Mn', 'O', 'P']",mp-31992,4,LiMn2P5O16,Pc
1029,0.008608752,"['Li', 'Ni', 'O']",mp-763578,3,Li4(NiO2)5,P-1
1030,0.008630817,"['Li', 'O', 'P', 'Pd']",mp-616572,4,Li2P2PdO7,Imma
1031,0.008639479,"['Cr', 'Li', 'Mn', 'O']",mp-1177394,4,Li4Mn3CrO8,C2/m
1032,0.008714724,"['Co', 'Li', 'O']",mp-1175409,3,Li9Co7O16,P-1
1033,0.008723945,"['Li', 'Mn', 'O', 'P']",mp-770967,4,Li2MnP2O7,P2_1
1034,0.008753302,"['Li', 'Mn', 'Ni', 'O']",mp-771114,4,Li3Mn(NiO2)4,C2/m
1035,0.008787206,"['Gd', 'Li', 'O']",mp-754162,3,LiGdO2,P2_1/c
1036,0.008797606,"['Li', 'O', 'P', 'V']",mp-761679,4,Li8V3P8O29,Cc
1037,0.008810794,"['Cu', 'Li', 'Mn', 'O']",mp-774001,4,Li2Mn3CuO8,P1
1038,0.008818675,"['Li', 'Nb', 'O']",mp-770649,3,Li5NbO5,C2/m
1039,0.008844482,"['La', 'Li', 'Ni', 'O']",mp-19445,4,LiLa4NiO8,Cmmm
1040,0.008846436,"['Co', 'Li', 'O', 'V']",mp-761752,4,LiVCoO4,Cmcm
1041,0.008860301,"['Fe', 'Li', 'O']",mp-769519,3,Li21(FeO4)4,C2
1042,0.008885771,"['Ca', 'Li', 'O', 'Si']",mp-560247,4,Li2Ca2Si5O13,P-1
1043,0.00889137,"['Li', 'Ni', 'O', 'Sb']",mp-772333,4,Li2Ni3SbO8,P31c
1044,0.008923484,"['Li', 'O', 'Ti']",mp-531820,3,Li4Ti7O16,Pnnm
1045,0.008946903,"['Li', 'Mn', 'O', 'Si']",mp-783909,4,Li2MnSiO4,P2_1/c
1046,0.008958705,"['Er', 'Li', 'O', 'P']",mp-555065,4,LiEr(PO3)4,C2/c
1047,0.008967091,"['Co', 'Cr', 'Li', 'O']",mp-771058,4,Li4Cr3CoO8,P-1
1048,0.009019762,"['B', 'Li', 'Mn', 'O']",mp-769946,4,Li4Mn(BO3)2,Pnnm
1049,0.009020809,"['Li', 'O', 'P', 'V']",mp-540147,4,LiV2(PO4)3,P2_1/c
1050,0.009043899,"['Co', 'Cr', 'Li', 'O']",mp-769744,4,Li4Cr3CoO8,C2/m
1051,0.009069543,"['Co', 'Li', 'O', 'Si']",mp-764956,4,Li2CoSiO4,C222_1
1052,0.009072086,"['Cu', 'Li', 'O', 'P']",mp-759435,4,LiCu(PO3)3,P2_12_12_1
1053,0.00907348,"['Ge', 'Li', 'O', 'Y']",mp-1211012,4,LiYGeO4,Pnma
1054,0.009103788,"['Cr', 'Li', 'O', 'V']",mp-768048,4,Li4VCr3O8,P-1
1055,0.009166468,"['Li', 'O', 'Sb']",mp-37436,3,Li7SbO6,P1
1056,0.009169141,"['Co', 'Li', 'O', 'P']",mp-31557,4,LiCo6P7O24,P2_1/m
1057,0.009194497,"['Cu', 'Li', 'Nd', 'O']",mp-766561,4,LiNd14(Cu3O14)2,C2/m
1058,0.009255855,"['Fe', 'Li', 'O', 'Ti']",mp-775306,4,Li2Ti3FeO8,R32
1059,0.009257452,"['Li', 'O', 'Sm']",mp-7800,3,LiSmO2,P2_1/c
1060,0.009267103,"['Co', 'Li', 'O', 'Si']",mp-763391,4,Li2Co(SiO3)2,Fdd2
1061,0.009276197,"['Li', 'O', 'Sb']",mp-756935,3,Li3SbO3,I-43m
1062,0.009285022,"['Cr', 'Li', 'O', 'V']",mp-861746,4,Li4V3CrO8,P-1
1063,0.009290049,"['Co', 'Li', 'Ni', 'O']",mp-775285,4,Li2CoNi3O8,P2_12_12_1
1064,0.009322008,"['In', 'Li', 'O', 'Si']",mp-6240,4,LiIn(SiO3)2,C2/c
1065,0.009363575,"['Fe', 'Li', 'O', 'V']",mp-775342,4,LiVFeO4,Cmcm
1066,0.009365012,"['Cr', 'Li', 'Mn', 'O']",mp-779100,4,Li24Mn7Cr5O36,P1
1067,0.009396964,"['Li', 'O', 'P', 'V']",mp-1177831,4,Li2V2(PO4)3,P-1
1068,0.009405971,"['Co', 'Li', 'Mn', 'O']",mp-772690,4,Li3Mn4CoO8,C2/m
1069,0.009406942,"['H', 'Li', 'O', 'V']",mp-1198234,4,Li3V(H4O3)4,Pc
1070,0.009411733,"['Li', 'O', 'P', 'V']",mp-1013850,4,LiV2P2O9,Pnma
1071,0.00942712,"['Fe', 'Li', 'O', 'P']",mp-540149,4,Li2Fe(PO3)4,Pnma
1072,0.009441896,"['Fe', 'Li', 'O', 'P']",mp-694615,4,LiFePO4,Cc
1073,0.00946162,"['C', 'Li', 'Na', 'O']",mp-561310,4,NaLiCO3,P-62m
1074,0.009464502,"['Ba', 'Ir', 'Li', 'O']",mp-1228761,4,Ba4Li(IrO4)3,C2/m
1075,0.009482529,"['Li', 'Mo', 'O', 'P']",mp-25083,4,LiMo3P3O16,P-1
1076,0.009518123,"['Li', 'O', 'P', 'Sb']",mp-779525,4,Li3Sb3P8O29,Cc
1077,0.009535491,"['Ga', 'Li', 'O', 'P']",mp-560058,4,Li9Ga3P8O29,P-3c1
1078,0.009550811,"['Li', 'O', 'Ti']",mp-530141,3,Li7Ti16O32,I-42m
1079,0.009550892,"['Li', 'O', 'Ti']",mp-779455,3,Li7Ti5O12,C2/m
1080,0.009556497,"['Fe', 'Li', 'O', 'P']",mp-585400,4,LiFePO4,R3
1081,0.009562754,"['Co', 'Cr', 'Li', 'O']",mp-769750,4,Li4Cr3CoO8,C2/m
1082,0.009587783,"['Li', 'Ni', 'O']",mp-504102,3,Li(NiO2)2,R-3
1083,0.009588714,"['Li', 'Mn', 'O']",mp-705742,3,Li13Mn21O48,Cm
1084,0.009628414,"['Li', 'Mo', 'O']",mp-25576,3,Li(MoO2)2,C2/c
1085,0.009628463,"['Co', 'Li', 'Ni', 'O']",mp-1178111,4,Li10Co3Ni7O20,C2/m
1086,0.00963066,"['Fe', 'Li', 'O', 'V']",mp-776146,4,Li2V3FeO8,P2_1
1087,0.00963463,"['Co', 'Li', 'O', 'Sb']",mp-761676,4,Li2Co3SbO8,R-3m
1088,0.009716233,"['Cr', 'Li', 'Mn', 'O']",mp-773299,4,LiMn3CrO8,R3m
1089,0.009743144,"['Li', 'O', 'Pr']",mp-10620,3,LiPrO2,P2_1/c
1090,0.009802567,"['Fe', 'Li', 'Mn', 'O']",mp-1177898,4,Li2MnFeO4,C2/c
1091,0.009805378,"['Hf', 'La', 'Li', 'O']",mp-1198622,4,Li7La3Hf2O12,I4_1/acd
1092,0.009815134,"['Li', 'Mo', 'O']",mp-567176,3,Li2Mo4O13,P-1
1093,0.009828214,"['Li', 'Mn', 'O', 'Si']",mp-780918,4,Li2MnSiO4,Pna2_1
1094,0.009847888,"['Li', 'Fe', 'Si', 'O']",mp-765849,4,LiFe(SiO3)2,C222
1095,0.009854474,"['Cr', 'Li', 'Mn', 'O']",mp-770089,4,Li24Mn7Cr5O36,P1
1096,0.009858095,"['Co', 'Li', 'Mg', 'O']",mp-1037086,4,LiMg30CoO32,P4/mmm
1097,0.009863773,"['Li', 'Mo', 'O']",mp-555849,3,Li2Mo4O13,P-1
1098,0.009870673,"['Cr', 'Li', 'Mn', 'O']",mp-778764,4,Li24Mn7Cr5O36,P1
1099,0.009871852,"['Li', 'O', 'Ti']",mp-772151,3,Li2Ti4O9,P-3c1
1100,0.009875041,"['Li', 'Rh', 'O']",mp-14476,3,LiRhO2,Fd-3m
1101,0.009880959,"['La', 'Li', 'O', 'Sn']",mp-1200057,4,Li7La3(SnO6)2,I4_1/acd
1102,0.009889714,"['Li', 'Mo', 'O']",mp-579105,3,Li2Mo4O13,P2_1
1103,0.009897339,"['Cr', 'Li', 'O', 'P']",mp-764153,4,Li2CrP2O7,P2_1/c
1104,0.009904934,"['B', 'H', 'Li', 'O']",mp-604459,4,Li2B4H4O9,P-1
1105,0.009907533,"['Cr', 'Li', 'Mn', 'O']",mp-770312,4,Li24Mn7Cr5O36,P1
1106,0.009935677,"['Cu', 'Li', 'O']",mp-1222709,3,Li3(CuO2)2,Cm
1107,0.00993847,"['Li', 'Mn', 'O', 'P']",mp-861482,4,LiMnPO4,Pca2_1
1108,0.009938738,"['Li', 'O', 'P', 'Ti']",mp-762322,4,LiTi2(PO4)3,C2
1109,0.009941868,"['Li', 'Na', 'O', 'V']",mp-775722,4,Na7Li3V10O30,P1
1110,0.009964776,"['Li', 'Ni', 'O', 'Sn']",mp-771107,4,Li3Ni4SnO8,C2/m
1111,0.009969538,"['Li', 'Mn', 'O', 'P']",mp-31969,4,Li3Mn2(PO4)3,P2_1/c
1112,0.009982248,"['Ca', 'Li', 'O', 'Si']",mp-1020009,4,Li2Ca2Si2O7,P6_122
1113,0.009994137,"['Co', 'Li', 'O']",mp-1175381,3,Li9Co7O16,P-1
1114,0.010002285,"['Cr', 'Li', 'O', 'Sb']",mp-772283,4,Li2Cr3SbO8,P6_3mc
1115,0.010006168,"['Li', 'Ni', 'O', 'P']",mp-861615,4,LiNiPO4,Pna2_1
1116,0.010006953,"['Li', 'Nb', 'O', 'Sr']",mp-557857,4,SrLi2Nb2O7,Cmcm
1117,0.010025228,"['Cr', 'Li', 'Mn', 'O']",mp-770232,4,Li24Mn7Cr5O36,P1
1118,0.010037451,"['Fe', 'Li', 'O', 'P']",mp-851285,4,Li2Fe2(PO4)3,Pbcn
1119,0.010046436,"['Li', 'Na', 'O', 'V']",mp-1221217,4,Na3LiV4O12,C2
1120,0.010059419,"['B', 'Ga', 'Li', 'O']",mp-556014,4,Li3Ga(BO3)2,P-1
1121,0.010061465,"['Li', 'Nb', 'O', 'Zn']",mp-767604,4,Li12Nb14ZnO42,P1
1122,0.010087056,"['Li', 'Mn', 'O', 'P']",mp-1101535,4,Li2MnP2O7,P-1
1123,0.010141734,"['Li', 'Mn', 'O', 'P']",mp-773727,4,Li3Mn2(PO4)3,P2_1/c
1124,0.01017376,"['B', 'Li', 'Mn', 'O']",mp-770910,4,Li3Mn(BO3)2,P2_1/c
1125,0.010176464,"['Li', 'O', 'P', 'V']",mp-771281,4,Li5V4(PO4)6,Pc
1126,0.010179436,"['Li', 'Nb', 'O']",mp-674361,3,LiNbO3,P1
1127,0.010182247,"['Li', 'O', 'Ru']",mp-37839,3,Li7RuO6,P1
1128,0.010185918,"['Li', 'O', 'P', 'V']",mp-705340,4,LiVP2O7,P2_1/c
1129,0.010215567,"['Cr', 'Li', 'Mn', 'O']",mp-770281,4,Li24Mn7Cr5O36,P1
1130,0.010220194,"['Fe', 'Li', 'O', 'V']",mp-765728,4,Li4VFe3O8,R-3m
1131,0.010230684,"['Co', 'Li', 'O', 'Si']",mp-1197270,4,Li2CoSiO4,Pna2_1
1132,0.010251797,"['Li', 'Mn', 'O', 'Si']",mp-849238,4,Li2MnSiO4,Pnma
1133,0.010272521,"['Li', 'Mo', 'O']",mp-1199885,3,Li12Mo5O17,P-1
1134,0.010297913,"['Li', 'Nb', 'O', 'Zn']",mp-759244,4,Li12Nb14ZnO42,P1
1135,0.010314287,"['Li', 'Nb', 'O', 'V']",mp-774016,4,Li2NbV3O8,R-3m
1136,0.010314865,"['Cr', 'Li', 'Mn', 'O']",mp-770366,4,Li24Mn7Cr5O36,P1
1137,0.010323727,"['Li', 'Na', 'O', 'V']",mp-777414,4,Na7Li3V10O30,P1
1138,0.010328294,"['Cr', 'Li', 'Mn', 'O']",mp-770250,4,Li24Mn7Cr5O36,P1
1139,0.01037715,"['Fe', 'Li', 'O', 'P']",mp-766777,4,LiFePO4,Pca2_1
1140,0.010382187,"['Li', 'O', 'Os']",mp-1078188,3,LiOsO3,R-3c
1141,0.010385611,"['Cr', 'Li', 'Mn', 'O']",mp-780441,4,Li24Mn7Cr5O36,P1
1142,0.010396818,"['Ga', 'Li', 'Mg', 'O']",mp-1040052,4,LiMg30GaO32,P4/mmm
1143,0.010408283,"['Li', 'Mn', 'O', 'P']",mp-31924,4,LiMnP2O7,C2/c
1144,0.010419372,"['Li', 'O', 'P', 'V']",mp-1176861,4,Li7V3P8O29,P1
1145,0.01042542,"['Li', 'Mn', 'O', 'P']",mp-861632,4,LiMnPO4,Pc
1146,0.010480723,"['In', 'Li', 'O']",mp-27417,3,Li3InO3,P-31c
1147,0.010480777,"['Fe', 'Li', 'O', 'Si']",mp-767077,4,Li5Fe(SiO4)2,C2
1148,0.010499987,"['Fe', 'Li', 'O', 'Sb']",mp-776233,4,Li2Fe3SbO8,R-3m
1149,0.010505109,"['Fe', 'Li', 'Nb', 'O']",mp-775011,4,Li2NbFe3O8,P6_3mc
1150,0.01050983,"['H', 'Li', 'N', 'O']",mp-23906,4,LiH6NO6,Cmcm
1151,0.010518227,"['Li', 'Mn', 'O']",mp-690161,3,Li9Mn20O40,P1
1152,0.010537816,"['Li', 'O', 'P', 'V']",mp-1176963,4,Li7V3P8O29,C2
1153,0.010540894,"['Li', 'Nb', 'O', 'V']",mp-774010,4,Li2NbV3O8,P4_332
1154,0.010560155,"['Li', 'O', 'Re', 'Sr']",mp-12525,4,Sr2LiReO6,Fm-3m
1155,0.01058524,"['C', 'Fe', 'Li', 'O']",mp-1178002,4,Li2Fe2(CO3)3,P1
1156,0.010590012,"['Cr', 'Li', 'O', 'Sn']",mp-774276,4,Li2Cr3SnO8,P4_32_12
1157,0.010602207,"['Cu', 'Li', 'O']",mp-18162,3,Li(CuO)2,Pnma
1158,0.010605227,"['Fe', 'Li', 'Ni', 'O']",mp-773235,4,Li3Fe3NiO8,R-3m
1159,0.010632565,"['Cr', 'Li', 'O', 'V']",mp-1177300,4,Li4VCr3O8,C2/m
1160,0.010649313,"['Li', 'Ni', 'O', 'P']",mp-504371,4,LiNi6P7O24,P2_1/m
1161,0.010676686,"['Li', 'O', 'W']",mp-540541,3,Li2W2O7,P-1
1162,0.010705524,"['Li', 'Ni', 'O']",mp-763807,3,Li11Ni13O24,C2/m
1163,0.010706725,"['Li', 'Ni', 'O']",mp-775737,3,LiNi9O10,P-1
1164,0.010763329,"['K', 'Li', 'Nb', 'O']",mp-766938,4,K3Li2Nb5O15,P4bm
1165,0.010775256,"['Li', 'O', 'Ti', 'V']",mp-775049,4,Li5Ti2V5O12,C2
1166,0.010802706,"['Eu', 'Li', 'O']",mp-1019724,3,LiEuO2,Pnma
1167,0.010807099,"['Li', 'O', 'P', 'V']",mp-32528,4,Li3V3(PO4)4,P2_1
1168,0.01082059,"['Cr', 'Li', 'O', 'Sn']",mp-769749,4,Li2Cr3SnO8,P6_3mc
1169,0.010833657,"['Li', 'Ti', 'O']",mp-36864,3,Li2TiO3,C2/c
1170,0.010839878,"['Fe', 'Li', 'O', 'P']",mp-853256,4,Li3Fe2(PO4)3,P-1
1171,0.010862036,"['Li', 'Na', 'O', 'V']",mp-566164,4,NaLiV2O6,C2/c
1172,0.010874475,"['Al', 'Li', 'Mg', 'O']",mp-1038227,4,LiMg30AlO32,P4/mmm
1173,0.010882101,"['Cr', 'Li', 'Mn', 'O']",mp-1178059,4,Li24Mn7Cr5O36,P1
1174,0.010902999,"['Fe', 'Li', 'O', 'Ti']",mp-774059,4,Li7Ti12Fe5O32,R3
1175,0.010905941,"['Li', 'O', 'P', 'V']",mp-767232,4,LiV2(PO4)2,P2_1
1176,0.010952973,"['Li', 'Nb', 'O']",mp-686057,3,LiNbO3,P1
1177,0.010957939,"['Co', 'Fe', 'Li', 'O']",mp-762142,4,Li2Fe3CoO8,P4_32_12
1178,0.010981308,"['Li', 'Mo', 'O']",mp-19338,3,LiMoO2,R-3m
1179,0.011020281,"['Li', 'Mn', 'O', 'P']",mp-771623,4,Li5Mn3(PO4)4,Pm
1180,0.011068541,"['Li', 'O', 'Si', 'V']",mp-767075,4,LiVSiO4,Cmcm
1181,0.011075125,"['Cr', 'Li', 'O']",mp-778718,3,Li2Cr2O7,C2/c
1182,0.011086003,"['Li', 'Ni', 'O']",mp-762007,3,Li7(NiO2)9,P-1
1183,0.011089792,"['Cr', 'Li', 'O', 'V']",mp-763906,4,Li2VCrO4,Imma
1184,0.01109437,"['Li', 'Mo', 'O', 'P']",mp-1101555,4,Li2MoP4O13,P-1
1185,0.011099816,"['Li', 'O', 'P', 'Zr']",mp-773068,4,LiZr2(PO4)3,Cc
1186,0.011137219,"['Li', 'Mn', 'O', 'P']",mp-771361,4,LiMn3(PO4)3,C2/c
1187,0.011159102,"['Fe', 'Ir', 'Li', 'O']",mp-1222630,4,Li3FeIrO5,P-1
1188,0.011192374,"['Ba', 'Cu', 'Li', 'O']",mp-18713,4,Ba2Li(CuO2)3,Fmmm
1189,0.01120411,"['Li', 'O', 'P', 'W']",mp-1176594,4,LiP4WO12,C2/c
1190,0.011221849,"['Fe', 'K', 'Li', 'O']",mp-762898,4,K8Li9(FeO4)4,P1
1191,0.011231771,"['Li', 'Ni', 'O']",mp-38676,3,Li11(NiO2)12,C2/m
1192,0.01123328,"['Li', 'Mn', 'O', 'P']",mp-540125,4,LiMnPO4,R3
1193,0.011233907,"['Li', 'Ni', 'O']",mp-698630,3,Li9Ni23O32,P1
1194,0.011239106,"['Li', 'O', 'Ti']",mp-1177528,3,Li3Ti7O14,C2/c
1195,0.011245254,"['Fe', 'Li', 'O', 'P']",mp-540123,4,LiFePO4,P2_1/c
1196,0.01127394,"['Li', 'Mn', 'O', 'V']",mp-861571,4,LiMnVO4,Imma
1197,0.01127811,"['Fe', 'Li', 'Ni', 'O']",mp-771724,4,Li3Fe2NiO6,C2/m
1198,0.011294426,"['Li', 'Mo', 'O', 'P']",mp-1013898,4,LiMo3P3O13,P2_1/m
1199,0.011342278,"['Co', 'Li', 'O', 'P']",mp-1176778,4,LiCoPO4,Cc
1200,0.011372772,"['Li', 'Nb', 'O', 'Sr']",mp-756684,4,Sr2Li2Nb3O10,Fmm2
1201,0.011375406,"['Li', 'Mn', 'O', 'Si']",mp-850110,4,Li2Mn(SiO3)2,Fdd2
1202,0.011426227,"['Li', 'Mn', 'O']",mp-705961,3,Li5Mn12O24,Cm
1203,0.011446398,"['Cr', 'Ge', 'Li', 'O']",mp-1105411,4,LiCr(GeO3)2,C2/c
1204,0.011461882,"['Li', 'Ni', 'O']",mp-850106,3,Li3(NiO2)4,C2/m
1205,0.0114771,"['Cr', 'Li', 'O', 'Ti']",mp-779768,4,Li32Ti11Cr5O48,P1
1206,0.01149728,"['Li', 'O', 'Ti']",mp-759713,3,Li8Ti15O32,R3m
1207,0.011515883,"['Li', 'Na', 'O', 'V']",mp-1220829,4,Na5Li3V8O24,P1
1208,0.011519111,"['Li', 'O', 'P', 'V']",mp-768076,4,Li3V4(PO4)6,P1
1209,0.011520086,"['Li', 'O', 'P', 'V']",mp-1176826,4,Li8V3P8O29,P1
1210,0.011567403,"['Fe', 'Li', 'O', 'Si']",mp-761968,4,Li4FeSi2O7,Cc
1211,0.0116189,"['Cr', 'Li', 'Ni', 'O']",mp-769743,4,Li4Cr3NiO8,P2/m
1212,0.011646225,"['Li', 'O', 'Ti']",mp-772055,3,Li6Ti2O7,C2/c
1213,0.011653803,"['Cr', 'Li', 'Mn', 'O']",mp-770106,4,Li4MnCrO6,P1
1214,0.011657545,"['Li', 'Na', 'O', 'V']",mp-775624,4,Na5Li3V8O24,C2
1215,0.011692443,"['Fe', 'Li', 'O', 'Si']",mp-767964,4,Li2Fe(SiO3)2,Fdd2
1216,0.011697632,"['Li', 'O', 'P', 'W']",mp-763459,4,LiP4WO12,P-1
1217,0.011702343,"['Co', 'Li', 'Mg', 'O']",mp-769537,4,Li14MgCo13O28,P-1
1218,0.011723631,"['Cr', 'Li', 'O', 'Ti']",mp-771280,4,Li24Ti7Cr5O36,P1
1219,0.01173306,"['Cr', 'Li', 'Mn', 'O']",mp-770156,4,Li4MnCrO6,P1
1220,0.011759072,"['Li', 'O', 'P', 'V']",mp-1177054,4,Li7V3P8O29,P1
1221,0.011763192,"['Li', 'Mn', 'O', 'Si']",mp-767711,4,Li2Mn2Si4O11,P-1
1222,0.01178352,"['Fe', 'Li', 'O', 'P']",mp-540110,4,LiFePO4,Pna2_1
1223,0.011788951,"['Fe', 'Li', 'Ni', 'O']",mp-768013,4,Li5Fe(Ni2O5)2,R-3m
1224,0.011804222,"['Li', 'Mn', 'O', 'Si']",mp-775454,4,Li2MnSiO4,Pna2_1
1225,0.011839876,"['Li', 'O', 'P', 'V']",mp-697749,4,LiV2(PO4)3,Cc
1226,0.011867458,"['Co', 'Li', 'O', 'P']",mp-762018,4,LiCoPO4,I-4
1227,0.011879703,"['Li', 'Mg', 'Ni', 'O']",mp-771784,4,Li3Mg(NiO2)4,R-3m
1228,0.011917415,"['Cr', 'Li', 'O', 'Ti']",mp-771286,4,Li24Ti7Cr5O36,P1
1229,0.011941059,"['Cr', 'Li', 'O', 'Ti']",mp-1178000,4,Li2TiCr3O8,C222_1
1230,0.01195803,"['Fe', 'Li', 'Ni', 'O']",mp-773709,4,Li3Fe(NiO3)2,C2/m
1231,0.011992522,"['B', 'H', 'Li', 'O']",mp-24560,4,LiB2H3O5,Pnna
1232,0.012009002,"['Li', 'O', 'P', 'Sb']",mp-26157,4,LiSb(PO3)4,P2_1/c
1233,0.012015531,"['Cu', 'Li', 'O']",mp-553966,3,Li(CuO)2,P4_2/nmc
1234,0.012024501,"['Cr', 'Li', 'Mn', 'O']",mp-770178,4,Li4MnCrO6,C2
1235,0.012044926,"['Cr', 'Li', 'Mn', 'O']",mp-770246,4,Li4MnCrO6,C2/c
1236,0.012079863,"['Cr', 'Li', 'O', 'W']",mp-778824,4,Li4Cr(WO4)3,P1
1237,0.012104342,"['Co', 'Fe', 'Li', 'O']",mp-764207,4,Li4Fe3CoO8,C2/m
1238,0.012115339,"['Li', 'Cu', 'O']",mp-545467,3,Li3(CuO2)2,C2/m
1239,0.01211555,"['Li', 'O', 'P', 'Sn']",mp-760231,4,LiSn2(PO4)3,Pna2_1
1240,0.012116266,"['Li', 'Nd', 'O']",mp-756648,3,LiNdO2,P2_1/c
1241,0.012119885,"['Li', 'O', 'Os']",mp-34375,3,Li7OsO6,P1
1242,0.012144276,"['Fe', 'Li', 'Mn', 'O']",mp-771462,4,Li3MnFe3O8,R-3m
1243,0.012154324,"['Li', 'O', 'Ti']",mp-530600,3,Li14Ti21O48,Cm
1244,0.012178889,"['Li', 'Mo', 'O', 'P']",mp-585269,4,Li5Mo2P5O18,P-1
1245,0.012181433,"['Li', 'O', 'P', 'Ti']",mp-776502,4,LiTi2(PO4)3,P1
1246,0.012185182,"['Cr', 'Li', 'O', 'Ti']",mp-771284,4,Li24Ti7Cr5O36,P1
1247,0.012200174,"['B', 'Fe', 'Li', 'O']",mp-1176890,4,Li7Fe8(BO3)8,P1
1248,0.012230666,"['Li', 'Mn', 'O', 'Si']",mp-761311,4,Li4MnSi2O7,Cc
1249,0.012253222,"['B', 'Li', 'O', 'Sm']",mp-1211228,4,Li3Sm2(BO3)3,P2_1/c
1250,0.012260181,"['Cr', 'Li', 'Ni', 'O']",mp-770046,4,Li4Cr3NiO8,C2/m
1251,0.012260463,"['Li', 'Mn', 'O']",mp-773331,3,Li3MnO3,P4_2/mnm
1252,0.012264958,"['Li', 'Mg', 'Ni', 'O']",mp-771050,4,Li7MgNi7O16,P-1
1253,0.012282605,"['Li', 'O', 'Ti', 'V']",mp-763978,4,Li5Ti2V3O10,P-1
1254,0.012295122,"['Cr', 'Li', 'O', 'Ti']",mp-771228,4,Li4TiCrO6,P1