,e_above_hull,elements,material_id,nelements,pretty_formula,spacegroup.symbol
0,0,"['Li', 'O']",mp-841,2,Li2O2,P6_3/mmc
1,0,"['Li', 'Mn', 'O']",mp-18988,3,Li2MnO3,C2/m
2,0,"['Li', 'O', 'P', 'Sm']",mp-1199215,4,LiSm(PO3)4,C2/c
3,0,"['Li', 'O', 'Ru', 'Sm']",mp-1210954,4,LiSm2RuO6,P2_1/c
4,0,"['Ce', 'Li', 'O', 'P']",mp-1205078,4,LiCe(PO3)4,C2/c
5,0,"['Ge', 'In', 'Li', 'O']",mp-17854,4,LiInGeO4,Pnma
6,0,"['Fe', 'La', 'Li', 'O']",mp-1078209,4,LiLa2FeO6,R-3
7,0,"['K', 'Li', 'O', 'Ta']",mp-9059,4,KLi6TaO6,R-3m
8,0,"['Li', 'Mn', 'O']",mp-770533,3,Li6MnO4,P4_2/nmc
9,0,"['K', 'Li', 'Mn', 'O']",mp-652866,4,K11LiMn4O16,I-42m
10,0,"['Ir', 'La', 'Li', 'O']",mp-11992,4,LiLa2IrO6,P2_1/c
11,0,"['K', 'Li', 'Mn', 'O']",mp-559117,4,KLiMnO2,C2/m
12,0,"['B', 'Ca', 'Li', 'O']",mp-557467,4,Li4Ca(BO3)2,Pnnm
13,0,"['K', 'Li', 'O', 'W']",mp-1212005,4,KLiWO4,P2_1/c
14,0,"['K', 'Li', 'O', 'Si']",mp-558102,4,KLiSi2O5,P2_1
15,0,"['K', 'Li', 'O', 'Si']",mp-561474,4,K3LiSiO4,P2_1/c
16,0,"['Al', 'K', 'Li', 'O']",mp-557268,4,KLi4AlO4,P2_1/c
17,0,"['K', 'Li', 'O', 'Pb']",mp-504806,4,K2Li14Pb3O14,Immm
18,0,"['K', 'Li', 'O', 'Pb']",mp-559106,4,KLi3PbO4,P-1
19,0,"['C', 'K', 'Li', 'O']",mp-562137,4,KLiCO3,P2_1/c
20,0,"['Ca', 'Li', 'O', 'Ru']",mp-6342,4,LiCa3RuO6,R-3c
21,0,"['Ge', 'K', 'Li', 'O']",mp-557473,4,K5LiGe2O7,P2_1/c
22,0,"['Ge', 'K', 'Li', 'O']",mp-18002,4,KLi3GeO4,P-1
23,0,"['Co', 'K', 'Li', 'O']",mp-765535,4,KLiCoO2,C2/m
24,0,"['La', 'Li', 'Mo', 'O']",mp-1185315,4,Li3La3(MoO6)2,Ia-3d
25,0,"['Co', 'K', 'Li', 'O']",mp-761715,4,K2Li3CoO4,P2_1/c
26,0,"['La', 'Li', 'Mo', 'O']",mp-19377,4,LiLa2MoO6,P2_1/c
27,0,"['Ca', 'Li', 'O', 'Ta']",mp-1194523,4,Li2CaTa2O7,Pnma
28,0,"['Ca', 'Li', 'O', 'Os']",mp-1191787,4,LiCa3OsO6,R-3c
29,0,"['Ca', 'Li', 'O', 'Si']",mp-7610,4,Li2CaSiO4,I-42m
30,0,"['Li', 'O', 'Os', 'Sm']",mp-12448,4,LiSm2OsO6,P2_1/c
31,0,"['In', 'Li', 'O', 'W']",mp-1190195,4,LiIn(WO4)2,C2/c
32,0,"['Cd', 'Ge', 'Li', 'O']",mp-7688,4,Li2CdGeO4,Pmn2_1
33,0,"['Li', 'Mn', 'O']",mp-37620,3,LiMnO2,I4_1/amd
34,0,"['Li', 'Sc', 'As', 'O']",mp-552663,4,LiScAs2O7,C2
35,0,"['Li', 'O', 'P', 'Sc']",mp-6565,4,Li3Sc2(PO4)3,P2_1/c
36,0,"['Fe', 'Li', 'O', 'P']",mp-31800,4,LiFe2P3O10,P2_1/m
37,0,"['Fe', 'Li', 'O', 'P']",mp-31833,4,Li2Fe3(P2O7)2,P2_1/c
38,0,"['Fe', 'Li', 'O', 'P']",mp-1101512,4,LiFeP2O7,P2_1/c
39,0,"['Li', 'O', 'P', 'Sc']",mp-10517,4,LiScP2O7,P2_1
40,0,"['As', 'Li', 'O', 'Zn']",mp-18048,4,LiZnAsO4,R3
41,0,"['K', 'Li', 'Zn', 'O']",mp-551092,4,KLiZnO2,C2/m
42,0,"['K', 'Li', 'O', 'Zn']",mp-1223469,4,KLiZn3O4,Cm
43,0,"['Li', 'Mn', 'O', 'Zn']",mp-704943,4,Li2Mn3ZnO8,P2_13
44,0,"['Li', 'O', 'Si', 'Zn']",mp-17288,4,Li2ZnSiO4,P2_1/c
45,0,"['Ge', 'Li', 'O', 'Zn']",mp-8184,4,Li2ZnGeO4,Pc
46,0,"['Ge', 'Li', 'O', 'Zn']",mp-772981,4,Li2Zn3(Ge3O8)2,P2_1
47,0,"['Li', 'Mo', 'O', 'Zn']",mp-1210963,4,Li2Zn2(MoO4)3,Pnma
48,0,"['K', 'Li', 'Mo', 'O']",mp-1199453,4,KLiMoO4,P6_3
49,0,"['Li', 'O', 'Sn', 'Zn']",mp-555965,4,Li2ZnSn3O8,Cmc2_1
50,0,"['Li', 'Fe', 'O']",mp-774155,3,Li2FeO3,C2
51,0,"['Fe', 'Li', 'O']",mp-19511,3,Li5FeO4,Pbca
52,0,"['Cu', 'Li', 'O', 'P']",mp-6412,4,Li2CuP2O7,C2/c
53,0,"['Li', 'O', 'Rb', 'Zn']",mp-18422,4,RbLiZn2O3,P4_2/mnm
54,0,"['As', 'Li', 'Mn', 'O']",mp-25044,4,LiMnAsO4,Pnma
55,0,"['Ir', 'Li', 'O', 'Sm']",mp-11904,4,LiSm2IrO6,P2_1/c
56,0,"['As', 'Li', 'Na', 'O']",mp-9066,4,NaLi2AsO4,Pmn2_1
57,0,"['As', 'Cs', 'Li', 'O']",mp-14364,4,Cs2LiAsO4,Cmc2_1
58,0,"['As', 'Li', 'O', 'Rb']",mp-14363,4,Rb2LiAsO4,Cmc2_1
59,0,"['Li', 'O', 'Sm', 'W']",mp-1211004,4,LiSm(WO4)2,P-1
60,0,"['Li', 'Fe', 'As', 'O']",mp-18878,4,LiFeAs2O7,C2
61,0,"['As', 'Fe', 'Li', 'O']",mp-556256,4,Li3Fe2(AsO4)3,P2_1/c
62,0,"['As', 'Fe', 'Li', 'O']",mp-542932,4,LiFeAsO4,Pnma
63,0,"['Cd', 'Li', 'O', 'Si']",mp-557293,4,Li2CdSiO4,Pnma
64,0,"['Cu', 'Li', 'O', 'P']",mp-12185,4,LiCu(PO3)3,P2_12_12_1
65,0,"['K', 'Li', 'Nb', 'O']",mp-759900,4,K2LiNbO4,P2_1/c
66,0,"['Ca', 'Ge', 'Li', 'O']",mp-7611,4,Li2CaGeO4,I-42m
67,0,"['K', 'Li', 'Nb', 'O']",mp-556902,4,KLi4NbO5,P-1
68,0,"['B', 'Dy', 'Li', 'O']",mp-1211233,4,LiDy6B3O14,P2_1/c
69,0,"['B', 'Li', 'O', 'Yb']",mp-15363,4,Li6Yb(BO3)3,P2_1/c
70,0,"['B', 'Li', 'O', 'Tb']",mp-1211079,4,LiTb6B3O14,P2_1/c
71,0,"['Li', 'Mn', 'Na', 'O']",mp-578869,4,Na5LiMn2O8,Pnma
72,0,"['Cs', 'Li', 'Mn', 'O']",mp-18722,4,Cs2LiMnO4,Cmc2_1
73,0,"['Li', 'Mn', 'O', 'Rh']",mp-1222353,4,LiMnRhO4,Imma
74,0,"['Li', 'O', 'Sb', 'Ti']",mp-1177857,4,Li2Ti2Sb2O,I4/mmm
75,0,"['Li', 'Mn', 'O']",mp-691115,3,Li4Mn5O12,C2/c
76,0,"['B', 'Gd', 'Li', 'O']",mp-581285,4,LiGd6B3O14,P2_1/c
77,0,"['B', 'Gd', 'Li', 'O']",mp-559706,4,Li3Gd(BO3)2,P2_1/c
78,0,"['B', 'Cs', 'Li', 'O']",mp-5990,4,CsLi(B3O5)2,I-42d
79,0,"['Li', 'Mn', 'Nb', 'O']",mp-772258,4,LiMnNbO4,P4_322
80,0,"['B', 'Cs', 'Li', 'O']",mp-555082,4,CsLi5(BO3)2,C2/c
81,0,"['B', 'Cs', 'Li', 'O']",mp-1019607,4,Cs2Li5(BO2)7,Ama2
82,0,"['B', 'Li', 'O', 'Rb']",mp-1020664,4,Rb2Li5(BO2)7,Ama2
83,0,"['B', 'Li', 'Na', 'O']",mp-560189,4,NaLi2BO3,P2_1/c
84,0,"['B', 'Li', 'Na', 'O']",mp-553926,4,NaLiB4O7,Fdd2
85,0,"['B', 'Be', 'Li', 'O']",mp-1210986,4,Li14Be6(BO3)9,P6_3/m
86,0,"['Li', 'Mn', 'Ni', 'O']",mp-771112,4,Li2Mn3NiO8,P4_332
87,0,"['Li', 'Mn', 'O']",mp-698582,3,Li5Mn7O16,Pnnm
88,0,"['B', 'Co', 'Li', 'O']",mp-766795,4,LiCoBO3,Cc
89,0,"['Li', 'O', 'Y']",mp-7020,3,LiYO2,P2_1/c
90,0,"['Li', 'Ge', 'B', 'O']",mp-8873,4,LiGeBO4,I-4
91,0,"['Al', 'B', 'Li', 'O']",mp-556655,4,Li2AlBO4,P2_1/c
92,0,"['Al', 'B', 'Li', 'O']",mp-557177,4,Li2Al(BO2)5,P2_1/c
93,0,"['Li', 'O', 'W']",mp-18902,3,Li2WO4,R-3
94,0,"['Li', 'O', 'Ta']",mp-7638,3,LiTa3O8,C2/c
95,0,"['Fe', 'Li', 'Mn', 'O']",mp-775538,4,Li3Mn5FeO12,C2/c
96,0,"['Fe', 'Li', 'Mn', 'O']",mp-769530,4,Li3Mn4(FeO6)2,P-1
97,0,"['B', 'Li', 'O', 'Si']",mp-556531,4,LiSi2BO6,P2_1
98,0,"['B', 'Li', 'Na', 'O']",mp-558455,4,Na4Li5(BO3)3,C2/c
99,0,"['Li', 'O', 'Sc', 'W']",mp-1211126,4,LiSc(WO4)2,C2/c
100,0,"['Co', 'Li', 'Mn', 'O']",mp-761940,4,Li2MnCo3O8,C2
101,0,"['Ge', 'Li', 'Mn', 'O']",mp-1210796,4,Li2MnGeO4,Pmn2_1
102,0,"['K', 'Li', 'Ni', 'O']",mp-774432,4,K2Li3NiO4,P2_1/c
103,0,"['Ir', 'K', 'Li', 'O']",mp-14466,4,KLi6IrO6,R-3m
104,0,"['Au', 'La', 'Li', 'O']",mp-560605,4,LiLa4AuO8,Cmmm
105,0,"['Ir', 'K', 'Li', 'O']",mp-561288,4,K3LiIrO4,C2/c
106,0,"['La', 'Li', 'O', 'W']",mp-1210919,4,LiLa(WO4)2,P-1
107,0,"['Fe', 'K', 'Li', 'O']",mp-24988,4,K2Li3FeO4,P2_1/c
108,0,"['Li', 'O', 'Si', 'Ta']",mp-560297,4,LiTaSiO5,P2_1/c
109,0,"['La', 'Li', 'O', 'Os']",mp-12451,4,LiLa2OsO6,P2_1/c
110,0,"['Ge', 'Li', 'O', 'Ta']",mp-560104,4,LiTaGeO5,P2_1/c
111,0,"['La', 'Li', 'Mn', 'O']",mp-769464,4,LiLa3MnO7,P2_1/c
112,0,"['La', 'Li', 'O', 'P']",mp-560866,4,LiLa(PO3)4,C2/c
113,0,"['Ba', 'Li', 'O', 'Ta']",mp-16792,4,Ba4LiTa3O12,P6_3mc
114,0,"['Li', 'O', 'W', 'Y']",mp-1191085,4,LiY(WO4)2,P2/c
115,0,"['Li', 'O', 'Si', 'Y']",mp-558941,4,LiYSiO4,P2_1/c
116,0,"['Li', 'Mg', 'O', 'Ti']",mp-774752,4,Li2MgTi3O8,P2_13
117,0,"['La', 'Li', 'O', 'Ru']",mp-6644,4,LiLa2RuO6,P2_1/c
118,0,"['Li', 'Mn', 'O', 'Si']",mp-763876,4,Li2MnSiO4,Pnma
119,0,"['Li', 'O', 'Ti', 'V']",mp-775161,4,Li2Ti3VO8,P4_332
120,0,"['Li', 'O', 'Ti', 'V']",mp-772392,4,LiTiVO4,Imma
121,0,"['B', 'Eu', 'Li', 'O']",mp-1211786,4,Li6Eu(BO3)3,P2_1/c
122,0,"['B', 'Eu', 'Li', 'O']",mp-1213345,4,LiEu6B3O14,P2_1/c
123,0,"['B', 'Li', 'Lu', 'O']",mp-1210908,4,Li2Lu5B3O13,P2_1/m
124,0,"['B', 'Li', 'O', 'Tm']",mp-1211340,4,Li6Tm(BO3)3,P2_1/c
125,0,"['B', 'Ho', 'Li', 'O']",mp-12160,4,Li6Ho(BO3)3,P2_1/c
126,0,"['B', 'Ba', 'Li', 'O']",mp-17672,4,BaLi(B3O5)3,R3c
127,0,"['B', 'Ba', 'Li', 'O']",mp-6075,4,Ba2Li(BO2)5,P2_1/m
128,0,"['B', 'Ba', 'Li', 'O']",mp-6499,4,BaLiBO3,P2_1/c
129,0,"['Li', 'O', 'Sr', 'Ti']",mp-16691,4,SrLi2Ti6O14,Cmce
130,0,"['B', 'Li', 'O', 'Rb']",mp-6787,4,RbLiB4O7,P2_12_12_1
131,0,"['B', 'Li', 'O', 'Rb']",mp-1020620,4,Rb5Li6(BO2)11,C2
132,0,"['B', 'Fe', 'Li', 'O']",mp-783910,4,LiFeBO3,P2_1/c
133,0,"['Li', 'Fe', 'O']",mp-774096,3,Li2FeO2,Immm
134,0,"['Li', 'Fe', 'O']",mp-851027,3,LiFeO2,Fd-3m
135,0,"['Li', 'Fe', 'P', 'O']",mp-19017,4,LiFePO4,Pnma
136,0,"['Li', 'O', 'P', 'W']",mp-763532,4,LiP3(WO6)2,P-1
137,0,"['Co', 'Li', 'O']",mp-771536,3,Li7Co5O12,C2/m
138,0,"['Li', 'O', 'P', 'Zn']",mp-555743,4,LiZnPO4,Cc
139,0,"['Cr', 'Fe', 'Li', 'O']",mp-771093,4,Li3Cr10Fe5O24,Cm
140,0,"['Li', 'O', 'P', 'Pb']",mp-22694,4,LiPPbO4,Pna2_1
141,0,"['Co', 'Li', 'O']",mp-765070,3,Li5CoO4,Pbca
142,0,"['Li', 'Co', 'O']",mp-31531,3,Li8CoO6,P6_3cm
143,0,"['Co', 'Li', 'O']",mp-24850,3,LiCoO2,R-3m
144,0,"['Cr', 'Li', 'Ni', 'O']",mp-780190,4,Li2Cr3(NiO6)2,Pbcn
145,0,"['Cr', 'Li', 'O', 'Rb']",mp-18741,4,RbLiCrO4,P31c
146,0,"['Co', 'Li', 'O', 'P']",mp-863863,4,LiCoPO4,Cc
147,0,"['Co', 'Li', 'O']",mp-1174037,3,Li5Co3O8,P-1
148,0,"['Cr', 'Li', 'Nb', 'O']",mp-762276,4,Li2NbCr3O8,P6_3mc
149,0,"['Cr', 'Li', 'O', 'Sn']",mp-772723,4,LiCrSnO4,Imma
150,0,"['Co', 'Li', 'O']",mp-774082,3,Li(CoO2)2,P2_1
151,0,"['Li', 'O', 'Re']",mp-5061,3,Li5ReO6,C2/m
152,0,"['Li', 'O', 'Re']",mp-540946,3,LiReO4,P-1
153,0,"['Au', 'Li', 'O']",mp-7471,3,Li3AuO3,P4_2/mnm
154,0,"['Au', 'Li', 'O']",mp-996959,3,LiAuO2,I4_122
155,0,"['Co', 'Li', 'O', 'P']",mp-585194,4,LiCo(PO3)3,P-1
156,0,"['Au', 'Li', 'O']",mp-1222442,3,Li5AuO4,C2/m
157,0,"['Gd', 'Li', 'O']",mp-21332,3,LiGdO2,Pnma
158,0,"['Li', 'Mo', 'O']",mp-699343,3,Li4MoO5,I4
159,0,"['Co', 'Li', 'O', 'P']",mp-31535,4,LiCoP2O7,P2_1
160,0,"['Co', 'Li', 'O', 'P']",mp-540495,4,LiCo(PO3)4,Pbcn
161,0,"['Li', 'Mo', 'O']",mp-35975,3,Li2MoO3,C2/m
162,0,"['Co', 'Cr', 'Li', 'O']",mp-772468,4,Li2Cr3(CoO6)2,Pbcn
163,0,"['Li', 'Mo', 'O']",mp-19117,3,Li4MoO5,P-1
164,0,"['Cr', 'Ge', 'Li', 'O']",mp-25742,4,LiCr(GeO3)2,P2_1/c
165,0,"['Be', 'Li', 'O', 'P']",mp-1201314,4,Li8Be6P7O29,P31c
166,0,"['Cr', 'Cs', 'Li', 'O']",mp-615884,4,CsLiCrO4,P2_1/c
167,0,"['Li', 'Na', 'O', 'P']",mp-1020164,4,Na3LiP2O7,C222_1
168,0,"['Co', 'Li', 'O']",mp-18925,3,Li6CoO4,P4_2/nmc
169,0,"['Ge', 'Li', 'O']",mp-15349,3,Li2GeO3,Cmc2_1
170,0,"['Li', 'W', 'O']",mp-19260,3,Li2WO4,C2/c
171,0,"['Li', 'Mn', 'O', 'P']",mp-504167,4,LiMn6P7O24,P2_1/m
172,0,"['Li', 'Si', 'O']",mp-5012,3,Li2SiO3,Cmc2_1
173,0,"['Li', 'Si', 'O']",mp-11737,3,Li4SiO4,P-1
174,0,"['Li', 'Si', 'O']",mp-28549,3,Li8SiO6,P6_3cm
175,0,"['Li', 'Mn', 'P', 'O']",mp-567303,4,Li2MnP2O7,P2_1/c
176,0,"['Li', 'Si', 'O']",mp-4117,3,Li2Si2O5,Ccc2
177,0,"['Li', 'O', 'Os']",mp-1211132,3,Li5OsO6,C2/m
178,0,"['Li', 'O', 'Os']",mp-1078358,3,LiOsO3,R3c
179,0,"['Li', 'Pd', 'O']",mp-760483,3,Li2PdO3,C2/m
180,0,"['Li', 'Pd', 'O']",mp-7608,3,Li2PdO2,Immm
181,0,"['Li', 'Al', 'O']",mp-530399,3,LiAl5O8,P4_332
182,0,"['Li', 'Al', 'O']",mp-15960,3,Li5AlO4,Pbca
183,0,"['Li', 'Al', 'O']",mp-3427,3,LiAlO2,P4_12_12
184,0,"['In', 'Li', 'O', 'P']",mp-6425,4,Li3In2(PO4)3,R-3
185,0,"['Li', 'Mn', 'O', 'P']",mp-540484,4,LiMnP2O7,P2_1
186,0,"['K', 'Li', 'O', 'P']",mp-559142,4,KLi(PO3)2,C2/c
187,0,"['Ag', 'Li', 'O']",mp-772290,3,LiAgO,I4/mmm
188,0,"['Li', 'Ag', 'O']",mp-27227,3,LiAg3O2,Ibam
189,0,"['Li', 'Mn', 'O', 'P']",mp-18997,4,LiMnPO4,Pnma
190,0,"['Ag', 'Li', 'O']",mp-996962,3,LiAgO2,P2_1/c
191,0,"['Li', 'O', 'Pb']",mp-22170,3,Li4PbO4,Cmcm
192,0,"['Li', 'O', 'Pb']",mp-22450,3,Li2PbO3,C2/c
193,0,"['Li', 'Mn', 'O', 'P']",mp-32007,4,LiMn(PO3)4,Pbcn
194,0,"['Li', 'C', 'O']",mp-3054,3,Li2CO3,C2/c
195,0,"['In', 'Li', 'O', 'P']",mp-8491,4,LiInP2O7,P2_1
196,0,"['Ge', 'Li', 'O']",mp-4558,3,Li4GeO4,Cmcm
197,0,"['Ge', 'Li', 'O']",mp-28623,3,Li4Ge5O12,P-1
198,0,"['Li', 'O', 'P', 'W']",mp-763407,4,LiP4WO12,Pbcn
199,0,"['Ge', 'Li', 'O']",mp-5832,3,Li2Ge7O15,Pbcn
200,0,"['K', 'Li', 'O', 'P']",mp-1019794,4,K3LiP2O7,C222_1
201,0,"['Li', 'Ta', 'O']",mp-3666,3,LiTaO3,R3c
202,0,"['Li', 'Na', 'O', 'P']",mp-559452,4,Na5Li(PO4)2,Pnma
203,0,"['Cs', 'Li', 'O', 'P']",mp-560667,4,CsLi(PO3)2,Fdd2
204,0,"['Li', 'Ni', 'O']",mp-774941,3,Li(NiO2)2,P4_332
205,0,"['Cr', 'K', 'Li', 'O']",mp-566105,4,KLiCrO4,Pna2_1
206,0,"['Cr', 'Li', 'O', 'P']",mp-1222580,4,Li5Cr3(PO4)4,P1
207,0,"['Li', 'Ni', 'O', 'P']",mp-25614,4,LiNiPO4,Pnma
208,0,"['Li', 'Ni', 'O']",mp-566008,3,Li2NiO3,C2/m
209,0,"['Li', 'Ni', 'O', 'P']",mp-32373,4,Li2Ni3(P2O7)2,P2_1/c
210,0,"['Li', 'Ni', 'O', 'P']",mp-19667,4,LiNi2P3O10,P2_1/m
211,0,"['Li', 'Ni', 'O', 'P']",mp-1176610,4,LiNi(PO3)3,P2_12_12_1
212,0,"['Cr', 'Li', 'O', 'P']",mp-1101520,4,LiCrP2O7,P2_1/c
213,0,"['Eu', 'Li', 'O', 'P']",mp-555486,4,LiEu(PO3)4,C2/c
214,0,"['Cr', 'Li', 'O', 'P']",mp-19103,4,LiCrP2O7,P2_1
215,0,"['Cr', 'Li', 'O', 'P']",mp-540481,4,Li2CrP2O7,C2/c
216,0,"['Fe', 'Li', 'O', 'P']",mp-762826,4,Li3Fe2(PO4)3,P2_12_12
217,0,"['Li', 'Lu', 'O']",mp-754605,3,LiLuO2,I4_1/amd
218,0,"['Ba', 'Li', 'O', 'P']",mp-555958,4,Ba2Li3(PO3)7,P2_1/c
219,0,"['Ir', 'Li', 'O']",mp-532085,3,Li2IrO3,C2
220,0,"['Cr', 'Li', 'O', 'P']",mp-504360,4,Li9Cr3P8O29,P-3c1
221,0,"['Fe', 'Li', 'O', 'P']",mp-19294,4,LiFeP2O7,P2_1
222,0,"['Cr', 'Li', 'O', 'P']",mp-851278,4,Li3Cr2(PO4)3,P1
223,0,"['Eu', 'Li', 'O', 'Ru']",mp-1211562,4,LiEu2RuO6,P2_1/c
224,0,"['Ba', 'Li', 'O', 'Ru']",mp-542122,4,Ba3LiRu2O9,P6_3/mmc
225,0,"['Li', 'O', 'Ru', 'Tb']",mp-1210924,4,LiTb2RuO6,P2_1/c
226,0,"['Li', 'O', 'Pr', 'Ru']",mp-1211106,4,LiPr2RuO6,P2_1/c
227,0,"['K', 'Li', 'O', 'Zr']",mp-17208,4,K2Li14Zr3O14,Immm
228,0,"['Fe', 'Li', 'O', 'P']",mp-31788,4,Li3Fe2(PO4)3,P2_1/c
229,0,"['Fe', 'Li', 'O', 'P']",mp-579738,4,Li9Fe3P8O29,P-3c1
230,0,"['As', 'Li', 'O', 'Zr']",mp-1202818,4,LiZr2(AsO4)3,P2_1/c
231,0,"['Li', 'O', 'P', 'Zr']",mp-10499,4,LiZr2(PO4)3,P2_1/c
232,0,"['Ge', 'Li', 'O', 'Sc']",mp-1194740,4,LiSc(GeO3)2,P2_1/c
233,0,"['Li', 'O', 'Sc', 'Si']",mp-6224,4,LiScSiO4,Pnma
234,0,"['Eu', 'Li', 'O']",mp-1098000,3,LiEu3O4,Pnma
235,0,"['Li', 'Na', 'O', 'P']",mp-558045,4,NaLi2PO4,Pnma
236,0,"['Cr', 'Li', 'Mn', 'O']",mp-777732,4,Li8Mn13Cr3O32,C2/m
237,0,"['Li', 'O', 'Pt']",mp-1211055,3,LiPt3O4,Pm-3n
238,0,"['Gd', 'Li', 'O', 'P']",mp-6248,4,LiGd(PO3)4,C2/c
239,0,"['Li', 'Mo', 'O', 'P']",mp-705007,4,LiMo(PO3)4,P2_1/c
240,0,"['Li', 'Mo', 'O', 'P']",mp-705113,4,LiMo4P7O24,P-1
241,0,"['Li', 'Mo', 'O']",mp-25080,3,Li2MoO4,R-3
242,0,"['C', 'Cr', 'Li', 'O']",mp-770839,4,LiCr(CO3)2,R-3
243,0,"['Li', 'O', 'Tb']",mp-7137,3,LiTbO2,Pnma
244,0,"['Li', 'Mo', 'O', 'P']",mp-540083,4,LiMo(PO4)2,P2_1/c
245,0,"['Li', 'Mo', 'O', 'P']",mp-540140,4,Li3Mo2(PO4)3,P2_1/c
246,0,"['Li', 'O', 'Rh']",mp-754870,3,Li2RhO3,C2/m
247,0,"['Li', 'Rh', 'O']",mp-14115,3,LiRhO2,R-3m
248,0,"['Li', 'Mo', 'O', 'P']",mp-582900,4,Li3Mo3P3O17,P-1
249,0,"['Li', 'O', 'Sn']",mp-4527,3,Li8SnO6,R-3
250,0,"['Li', 'Mo', 'O', 'P']",mp-585265,4,LiMo2(PO4)3,C2
251,0,"['Li', 'O', 'Sn']",mp-3540,3,Li2SnO3,C2/c
252,0,"['Li', 'O', 'Tc']",mp-1210877,3,Li2TcO3,C2/c
253,0,"['Li', 'Nb', 'O']",mp-31488,3,Li3NbO4,I-43m
254,0,"['Li', 'Nb', 'O']",mp-28030,3,Li8Nb2O9,P-1
255,0,"['Li', 'Nb', 'O']",mp-3731,3,LiNbO3,R3c
256,0,"['Li', 'Mo', 'O', 'P']",mp-1101506,4,LiMoP2O7,P2_1/c
257,0,"['Li', 'Nb', 'O']",mp-3924,3,LiNbO2,P6_3/mmc
258,0,"['Li', 'O', 'P', 'Tb']",mp-18194,4,LiTb(PO3)4,C2/c
259,0,"['Cr', 'Li', 'O', 'W']",mp-775271,4,Li2Cr3WO8,P6_3mc
260,0,"['Cr', 'Li', 'Mn', 'O']",mp-1176640,4,LiMnCrO4,Imma
261,0,"['Dy', 'Li', 'O']",mp-976726,3,LiDyO2,Pnma
262,0,"['Ho', 'Li', 'O']",mp-12645,3,LiHoO2,P2_1/c
263,0,"['Li', 'O', 'P', 'Sn']",mp-26949,4,LiSn2(PO3)5,Pc
264,0,"['Li', 'O', 'Tm']",mp-754237,3,LiTmO2,I4_1/amd
265,0,"['Li', 'O', 'Pt']",mp-8610,3,Li8PtO6,R-3
266,0,"['Li', 'O', 'Pt']",mp-531826,3,Li2PtO3,C2
267,0,"['Li', 'O', 'P', 'Sn']",mp-554917,4,LiSn2(PO4)3,P-1
268,0,"['Li', 'Mo', 'O', 'P']",mp-18987,4,LiMoP2O7,P2_1
269,0,"['Li', 'Ta', 'O']",mp-755013,3,Li5TaO5,C2/m
270,0,"['Al', 'B', 'Li', 'O']",mp-557104,4,LiAlB2O5,C2/c
271,0,"['B', 'Li', 'O', 'Pr']",mp-1211486,4,LiPr6B3O14,P2_1/c
272,0,"['Cs', 'Ge', 'Li', 'O']",mp-8313,4,Cs2Li2GeO4,P-1
273,0,"['Ge', 'Li', 'O', 'Rh']",mp-1222349,4,LiGeRhO4,Imma
274,0,"['Ge', 'Li', 'Nb', 'O']",mp-6456,4,LiNbGeO5,Pnma
275,0,"['Li', 'O', 'V']",mp-19440,3,LiVO3,C2/c
276,0,"['Ge', 'Li', 'O', 'Rb']",mp-8450,4,Rb2Li2GeO4,P-1
277,0,"['Ge', 'Li', 'Ni', 'O']",mp-32316,4,Li2NiGe3O8,P4_332
278,0,"['Fe', 'Ge', 'Li', 'O']",mp-645305,4,LiFe(GeO3)2,P2_1/c
279,0,"['Fe', 'Ge', 'Li', 'O']",mp-1210923,4,Li2FeGeO4,Pmn2_1
280,0,"['Li', 'O', 'Ru', 'Sr']",mp-6721,4,Sr3LiRuO6,R-3c
281,0,"['Co', 'Li', 'Na', 'O']",mp-763254,4,Na2Li2CoO4,P2_1/c
282,0,"['Co', 'Li', 'Na', 'O']",mp-540990,4,Na2Li3CoO4,Pnnm
283,0,"['Li', 'V', 'O']",mp-777667,3,LiV2O5,Pnma
284,0,"['B', 'Li', 'O', 'Sr']",mp-18495,4,SrLi(B3O5)3,R3c
285,0,"['Co', 'Li', 'Nb', 'O']",mp-777452,4,LiNbCoO4,P4_322
286,0,"['B', 'Li', 'O', 'Sr']",mp-10814,4,SrLiBO3,P2_1/c
287,0,"['Li', 'O', 'Sb', 'Sr']",mp-1190151,4,Sr3LiSbO6,R-3c
288,0,"['Ga', 'Li', 'O', 'Rb']",mp-1209478,4,Rb2Li3GaO4,Ibam
289,0,"['Cs', 'Ga', 'Li', 'O']",mp-555140,4,Cs2Li3GaO4,Ibam
290,0,"['Ga', 'Li', 'Na', 'O']",mp-540945,4,Na2Li3GaO4,Pnnm
291,0,"['Ga', 'Ge', 'Li', 'O']",mp-17685,4,Li3GaGeO5,Pna2_1
292,0,"['Co', 'Li', 'Ni', 'O']",mp-868358,4,Li4CoNi3O8,C2/m
293,0,"['Ga', 'Ge', 'Li', 'O']",mp-8702,4,LiGaGeO4,R-3
294,0,"['Ga', 'Li', 'O', 'Si']",mp-18147,4,LiGaSiO4,R3
295,0,"['Co', 'Li', 'Ni', 'O']",mp-776511,4,LiCoNiO4,Imma
296,0,"['Ga', 'Li', 'O', 'Si']",mp-16996,4,Li3GaSiO5,Pna2_1
297,0,"['Ga', 'K', 'Li', 'O']",mp-17774,4,K2Li3GaO4,P2_1/c
298,0,"['Ga', 'Li', 'O', 'P']",mp-1211020,4,LiGa(PO3)4,Pbcn
299,0,"['Ir', 'Li', 'Nd', 'O']",mp-11905,4,LiNd2IrO6,P2_1/c
300,0,"['Li', 'Nd', 'O', 'W']",mp-1211137,4,LiNd(WO4)2,P-1
301,0,"['Ge', 'Li', 'Na', 'O']",mp-6663,4,NaLiGe4O9,Pca2_1
302,0,"['Ge', 'Li', 'Na', 'O']",mp-561254,4,NaLi3GeO4,I4_1/a
303,0,"['Co', 'Ge', 'Li', 'O']",mp-769776,4,Li2CoGeO4,Pc
304,0,"['Li', 'O', 'Sr', 'Ta']",mp-558054,4,SrLi2Ta2O7,Cmcm
305,0,"['Li', 'Mg', 'Mn', 'O']",mp-585492,4,Li2MgMn3O8,P4_332
306,0,"['Li', 'O', 'Sb']",mp-770932,3,LiSbO3,C2/m
307,0,"['Li', 'Mg', 'O', 'P']",mp-9625,4,LiMgPO4,Pnma
308,0,"['Li', 'Mg', 'O', 'P']",mp-1020109,4,LiMg3P3O11,Pnma
309,0,"['Li', 'N', 'O']",mp-8180,3,LiNO3,R-3c
310,0,"['Ga', 'Li', 'O']",mp-5854,3,LiGaO2,Pna2_1
311,0,"['Ir', 'Li', 'O', 'Sr']",mp-6071,4,Sr3LiIrO6,R-3c
312,0,"['Ga', 'Li', 'O']",mp-28146,3,LiGa5O8,P4_332
313,0,"['Ga', 'Li', 'O']",mp-4657,3,Li5GaO4,Pbca
314,0,"['Li', 'Nb', 'O', 'Sr']",mp-1208770,4,Sr3Li6Nb2O11,Pmma
315,0,"['Li', 'Nb', 'O', 'Sr']",mp-1190404,4,Sr3LiNbO6,R-3c
316,0,"['Li', 'O', 'Re', 'Sr']",mp-1080625,4,Sr2LiReO6,I4/m
317,0,"['H', 'Li', 'O']",mp-27281,3,LiH3O2,C2/m
318,0,"['Li', 'Ni', 'O', 'Ti']",mp-775326,4,Li2Ti3NiO8,P4_332
319,0,"['Co', 'Li', 'Ni', 'O']",mp-765279,4,Li10CoNi9O20,P1
320,0,"['Li', 'H', 'O']",mp-23856,3,LiHO,P4/nmm
321,0,"['Al', 'Ge', 'Li', 'O']",mp-6765,4,Li3AlGeO5,Pna2_1
322,0,"['Al', 'Ge', 'Li', 'O']",mp-1222525,4,LiAlGeO4,R3
323,0,"['Li', 'O', 'Pb', 'Rb']",mp-504810,4,Rb2Li14Pb3O14,Immm
324,0,"['Li', 'O', 'Si', 'Sr']",mp-1191141,4,SrLi2SiO4,P3_121
325,0,"['C', 'Li', 'Na', 'O']",mp-559533,4,NaLiCO3,P-6
326,0,"['C', 'Li', 'Ni', 'O']",mp-767311,4,Li2Ni(CO3)2,P1
327,0,"['C', 'Fe', 'Li', 'O']",mp-768029,4,LiFe(CO3)2,R-3
328,0,"['C', 'Fe', 'Li', 'O']",mp-765320,4,Li2Fe(CO3)2,P2_1/c
329,0,"['Li', 'O', 'Sr', 'Ta']",mp-1190486,4,Sr3LiTaO6,R-3c
330,0,"['Li', 'V', 'O']",mp-19219,3,Li3VO4,Pmn2_1
331,0,"['Li', 'O', 'V']",mp-583094,3,Li3VO4,Pnma
332,0,"['Li', 'O', 'Sr', 'Ta']",mp-1208758,4,Sr3Li6Ta2O11,Pmma
333,0,"['Li', 'V', 'O']",mp-19340,3,LiVO2,R-3m
334,0,"['Co', 'Ge', 'Li', 'O']",mp-769597,4,Li2CoGe3O8,P2_13
335,0,"['Li', 'O', 'Tl']",mp-27483,3,Li5TlO4,P4_2/nmc
336,0,"['Li', 'Nd', 'O', 'W']",mp-566555,4,Li3Nd3(WO6)2,Ia-3d
337,0,"['Li', 'Nd', 'O', 'Os']",mp-12450,4,LiNd2OsO6,P2_1/c
338,0,"['Li', 'Nd', 'O', 'P']",mp-18711,4,LiNd(PO3)4,C2/c
339,0,"['C', 'Li', 'O', 'V']",mp-762019,4,LiV(CO3)2,R-3
340,0,"['Li', 'O', 'Si', 'V']",mp-18860,4,Li2VSiO5,P4/nmm
341,0,"['Li', 'O', 'P', 'V']",mp-1101587,4,Li7V8(PO4)12,P1
342,0,"['Fe', 'Li', 'O', 'Sn']",mp-773163,4,Li2Fe3SnO8,P6_3mc
343,0,"['Li', 'O', 'P', 'V']",mp-1101601,4,LiV2(PO4)3,P2/c
344,0,"['Ba', 'Li', 'Nb', 'O']",mp-18274,4,Ba4LiNb3O12,P6_3mc
345,0,"['Li', 'O', 'Si', 'V']",mp-640515,4,LiV(SiO3)2,P2_1/c
346,0,"['Li', 'O', 'V', 'W']",mp-1210933,4,LiV(WO4)2,C2/c
347,0,"['Fe', 'Li', 'Nb', 'O']",mp-771803,4,LiNbFeO4,P4_322
348,0,"['Li', 'O', 'V', 'W']",mp-775204,4,Li2V3WO8,P6_3mc
349,0,"['Ba', 'Ir', 'Li', 'O']",mp-554837,4,Ba3LiIr2O9,P6_3/mmc