,e_above_hull,elements,material_id,nelements,pretty_formula,spacegroup.symbol
2411,0.028188627,"['Fe', 'Li', 'O', 'V']",mp-770982,4,Li2VFeO4,P-1
2412,0.028206017,"['B', 'Li', 'Mn', 'O']",mp-777784,4,Li3Mn4(BO3)4,P1
2413,0.028226682,"['Li', 'Mn', 'O', 'P']",mp-31972,4,Li3Mn(PO4)2,P2_1/c
2414,0.02824155,"['Fe', 'Li', 'O', 'V']",mp-1177344,4,Li4VFe3O8,P2/m
2415,0.028253879,"['Cr', 'Li', 'O', 'P']",mp-767757,4,Li3Cr4(PO4)6,P1
2416,0.028287876,"['Ca', 'Li', 'Nb', 'O']",mp-766983,4,LiCa2Nb3O10,P2_1/c
2417,0.028302461,"['Co', 'Li', 'O']",mp-763622,3,Li2(CoO2)3,Cc
2418,0.028332484,"['Li', 'O', 'Si', 'V']",mp-775292,4,Li2V(Si2O5)3,Cmce
2419,0.028338446,"['Li', 'Mn', 'O', 'P']",mp-1097049,4,LiMn2P2O9,Pnma
2420,0.028351539,"['Li', 'Mo', 'O', 'P']",mp-705341,4,Li3Mo4P9O32,P-42_1c
2421,0.028354777,"['Li', 'Ni', 'O', 'P']",mp-540447,4,LiNi(PO3)3,P-1
2422,0.028362496,"['Cr', 'Li', 'O', 'P']",mp-1177462,4,Li4Cr2(PO4)3,P-1
2423,0.028384334,"['Li', 'O', 'Ti']",mp-772090,3,Li4Ti9O20,I4_1/a
2424,0.028420221,"['C', 'Li', 'Ni', 'O']",mp-763366,4,LiNiCO4,P2_1/c
2425,0.028425029,"['Li', 'Ni', 'O', 'P']",mp-861753,4,LiNi4(PO4)3,Pm
2426,0.028444057,"['B', 'H', 'Li', 'O']",mp-1198595,4,LiB6(H5O)2,C2/m
2427,0.02846475,"['Co', 'Li', 'O']",mp-1173960,3,Li3Co2O5,P-1
2428,0.02847408,"['Li', 'Mn', 'O', 'P']",mp-763660,4,LiMn(PO3)4,C2/c
2429,0.028476175,"['B', 'Fe', 'Li', 'O']",mp-764502,4,Li3Fe4(BO3)4,P1
2430,0.028509552,"['Fe', 'Li', 'O', 'Ti']",mp-776147,4,Li2TiFe3O8,P2_1
2431,0.028514961,"['Li', 'Mn', 'O']",mp-1174737,3,Li5Mn3O8,P-1
2432,0.028530673,"['Fe', 'Li', 'O']",mp-1176726,3,LiFe3O4,C2/c
2433,0.028533886,"['Li', 'Mn', 'O', 'P']",mp-776645,4,Li2MnP2O7,P1
2434,0.028539627,"['Co', 'Li', 'Mn', 'O']",mp-1175216,4,Li7Mn4CoO12,P1
2435,0.028541856,"['Co', 'Li', 'Mg', 'O']",mp-764439,4,Li2MgCo13O28,P1
2436,0.028554447,"['Cr', 'Li', 'O', 'V']",mp-1177207,4,Li4V5Cr3O16,P1
2437,0.028584702,"['Li', 'Mn', 'O', 'P']",mp-31964,4,Li2Mn(PO3)4,C2/c
2438,0.028609574,"['Li', 'Mn', 'O']",mp-773337,3,Li5Mn7O12,C2
2439,0.028616148,"['Li', 'Mn', 'O']",mp-1175331,3,Li7Mn5O12,P-1
2440,0.028626548,"['Li', 'Mn', 'O', 'Sb']",mp-1177911,4,Li2Mn3SbO8,R-3m
2441,0.028643231,"['Fe', 'Li', 'O', 'Si']",mp-761644,4,Li2Fe3Si3O10,C2/c
2442,0.028652558,"['Fe', 'Li', 'O', 'P']",mp-1177912,4,Li3Fe2(P2O7)2,P1
2443,0.028656417,"['Fe', 'K', 'Li', 'O']",mp-25751,4,K2Li2FeO4,P2_1/c
2444,0.028659615,"['B', 'Li', 'Mn', 'O']",mp-781670,4,Li5Mn6(BO3)6,P1
2445,0.028662651,"['K', 'Li', 'Mn', 'O']",mp-770699,4,KLiMnO2,Cccm
2446,0.028672682,"['Cu', 'Li', 'O', 'P']",mp-755821,4,Li5Cu(PO4)2,Pm
2447,0.028673322,"['Fe', 'Li', 'O', 'P']",mp-849506,4,Li3Fe2(P2O7)2,P1
2448,0.028676965,"['B', 'Li', 'Mn', 'O']",mp-850244,4,Li5Mn6(BO3)6,P1
2449,0.028700894,"['B', 'Li', 'Mn', 'O']",mp-851018,4,Li5Mn6(BO3)6,P1
2450,0.02872592,"['Li', 'Mn', 'O', 'P']",mp-31913,4,Li3Mn2(PO4)3,C2/m
2451,0.028828564,"['Co', 'Li', 'O', 'P']",mp-780586,4,LiCoP2O7,P1
2452,0.028830068,"['B', 'Li', 'Mn', 'O']",mp-850073,4,Li5Mn6(BO3)6,P1
2453,0.028838864,"['Co', 'Li', 'Ni', 'O']",mp-778768,4,Li2Co3NiO8,C2/m
2454,0.028842258,"['H', 'Li', 'N', 'O']",mp-722902,4,LiH2NO3,P2_1/c
2455,0.02886178,"['Li', 'Mn', 'O', 'Sn']",mp-771849,4,Li4Mn3SnO8,C2/m
2456,0.028867171,"['Cu', 'Li', 'O', 'P']",mp-776035,4,Li9Cu3P8O29,P-3c1
2457,0.028881736,"['Fe', 'Li', 'O', 'P']",mp-697800,4,LiFe4P7O24,P-1
2458,0.028896143,"['Co', 'Li', 'O', 'Sb']",mp-761674,4,Li2Co3SbO8,P6_3mc
2459,0.028900096,"['Fe', 'Li', 'O', 'P']",mp-762549,4,Li2Fe3(P2O7)2,P-1
2460,0.0289002,"['Co', 'Li', 'Mn', 'O']",mp-1175214,4,Li7Mn4CoO12,P1
2461,0.028900828,"['Cu', 'Li', 'Mn', 'O']",mp-765746,4,Li2MnCu3O8,P4_332
2462,0.028936689,"['Li', 'La', 'Ti', 'O']",mp-6521,4,LiLaTiO4,P4/nmm
2463,0.028972391,"['Fe', 'Li', 'O']",mp-1101736,3,LiFe3O4,P-1
2464,0.028995422,"['Li', 'Fe', 'O']",mp-773525,3,LiFe3O4,P2/m
2465,0.029001316,"['B', 'Li', 'Mn', 'O']",mp-850243,4,Li5Mn6(BO3)6,P1
2466,0.029014283,"['Li', 'O', 'Ti', 'V']",mp-770760,4,Li2TiVO5,P4/nmm
2467,0.029015593,"['Li', 'Nb', 'O']",mp-776108,3,LiNbO3,Pbcm
2468,0.029049336,"['Cu', 'Li', 'O']",mp-752615,3,Li4(CuO2)3,Cm
2469,0.029054562,"['Li', 'O', 'P', 'V']",mp-540276,4,LiVPO5,P2_1/c
2470,0.029092553,"['Li', 'Mn', 'O', 'P']",mp-763956,4,Li3Mn(PO4)2,P2_1/m
2471,0.029098068,"['Co', 'Li', 'O', 'P']",mp-767153,4,LiCo2(PO4)2,Pc
2472,0.029112741,"['Fe', 'Li', 'O']",mp-773975,3,Li9Fe23O32,C2
2473,0.029122911,"['Cr', 'Li', 'O', 'P']",mp-31667,4,LiCr2(PO4)3,P2_1/c
2474,0.029127125,"['Li', 'Ti', 'O']",mp-764648,3,LiTiO2,P6_3/mmc
2475,0.029141055,"['Ge', 'Li', 'O', 'V']",mp-769539,4,Li7VGeO8,P1
2476,0.029144277,"['Fe', 'Li', 'O', 'P']",mp-705356,4,Li2Fe(PO3)5,P2_1/m
2477,0.029161508,"['Li', 'O', 'W', 'Zn']",mp-1210825,4,Li2Zn2W2O9,P-3c1
2478,0.029182475,"['Co', 'Li', 'O', 'P']",mp-540275,4,LiCo(PO3)3,P-1
2479,0.029183311,"['Fe', 'Li', 'O', 'P']",mp-850917,4,LiFePO4,Pnma
2480,0.029188403,"['Co', 'Li', 'Mn', 'O']",mp-1174771,4,Li6Mn3CoO10,P1
2481,0.029188424,"['B', 'Li', 'Mn', 'O']",mp-850434,4,Li5Mn6(BO3)6,P1
2482,0.02919559,"['Co', 'Li', 'Ni', 'O']",mp-779166,4,LiCo3NiO8,R-3m
2483,0.029200614,"['Al', 'Li', 'O', 'Si']",mp-1222486,4,Li5Al(SiO4)2,C2
2484,0.029219596,"['Cr', 'Li', 'O', 'V']",mp-853131,4,Li2V3CrO8,R-3m
2485,0.029226481,"['B', 'Li', 'Mn', 'O']",mp-1177099,4,Li5Mn3(BO3)4,Pc
2486,0.029232802,"['Li', 'O', 'P', 'V']",mp-1177265,4,Li4V2(PO4)3,Pbcn
2487,0.029245054,"['Li', 'O', 'P', 'Sn']",mp-673024,4,LiSn4(PO4)3,R3c
2488,0.029265452,"['Li', 'Mn', 'O']",mp-769728,3,Li3Mn4O8,C2/m
2489,0.029316428,"['Li', 'Mn', 'O']",mp-780161,3,LiMnO2,P1
2490,0.029339084,"['Li', 'Mn', 'O', 'P']",mp-762788,4,LiMnP2O7,P2_1/c
2491,0.029349482,"['Li', 'Mn', 'O']",mp-770608,3,Li3Mn3O8,P4_332
2492,0.029357413,"['Co', 'Fe', 'Li', 'O']",mp-764985,4,Li8Fe3Co7O20,Pm
2493,0.029357515,"['B', 'Fe', 'Li', 'O']",mp-764714,4,Li3Fe4(BO3)4,P1
2494,0.029374807,"['Li', 'O', 'P', 'W']",mp-1176966,4,Li6P8W3O29,P1
2495,0.029378412,"['C', 'Cr', 'Li', 'O']",mp-766650,4,LiCrCO4,Pnma
2496,0.029392753,"['Cu', 'Fe', 'Li', 'O']",mp-771398,4,Li3Fe3CuO8,R-3m
2497,0.029405932,"['Li', 'Mn', 'O']",mp-698705,3,Li4Mn13O24,P1
2498,0.029456457,"['B', 'Fe', 'Li', 'O']",mp-764586,4,Li3Fe4(BO3)4,P1
2499,0.02946239,"['Fe', 'Li', 'O', 'Ti']",mp-850231,4,Li2TiFe3O8,R-3m
2500,0.029474681,"['Co', 'Li', 'Mn', 'O']",mp-1173893,4,Li2MnCoO4,C2/m
2501,0.029493063,"['Li', 'Mn', 'Ni', 'O']",mp-762958,4,Li6MnNi7O16,P1
2502,0.029498115,"['B', 'Fe', 'Li', 'O']",mp-764451,4,Li3Fe4(BO3)4,Pc
2503,0.029505224,"['Li', 'Mn', 'O', 'P']",mp-776665,4,Li2MnP2O7,P2_1/c
2504,0.029512881,"['Li', 'O', 'Ti']",mp-1222301,3,LiTiO2,P4/mmm
2505,0.029524472,"['Li', 'Mn', 'O', 'P']",mp-767957,4,Li3Mn4(PO4)6,P1
2506,0.02953075,"['Co', 'Fe', 'Li', 'O']",mp-763066,4,Li6Fe3Co7O20,P2/m
2507,0.029563879,"['Fe', 'Li', 'O', 'P']",mp-776769,4,Li2Fe2(PO4)3,C2/c
2508,0.029614382,"['Li', 'Mn', 'Ni', 'O']",mp-1222526,4,Li5Mn2NiO8,C2/m
2509,0.02961956,"['Cu', 'Li', 'O', 'P']",mp-504260,4,LiCu4(PO4)3,Pnma
2510,0.029623789,"['Li', 'Mn', 'O', 'Si']",mp-761325,4,Li2MnSiO4,I-42m
2511,0.029628835,"['Co', 'Li', 'O', 'P']",mp-1176782,4,LiCo2(PO4)2,Pc
2512,0.029636311,"['Fe', 'Li', 'O', 'V']",mp-1177821,4,Li2V3FeO8,Cc
2513,0.029645499,"['Li', 'O', 'Ti']",mp-754937,3,LiTi3O6,Cm
2514,0.029658583,"['Cr', 'Li', 'O']",mp-771288,3,Li3Cr4O8,R-3m
2515,0.029665983,"['Li', 'O', 'P', 'V']",mp-705367,4,LiV4P7O24,P-1
2516,0.029667666,"['Li', 'Ni', 'O']",mp-775402,3,Li4(NiO2)7,P-1
2517,0.029690292,"['Li', 'W', 'O']",mp-690542,3,Li4WO5,I4
2518,0.029698087,"['Li', 'Mn', 'O', 'Si']",mp-868673,4,Li15Mn15SiO32,P1
2519,0.029710015,"['Co', 'Li', 'Mn', 'O']",mp-1174149,4,Li4Mn3CoO8,P-1
2520,0.029738916,"['Fe', 'Li', 'O', 'V']",mp-775524,4,Li2V3FeO8,Cmc2_1
2521,0.02975017,"['Li', 'Mo', 'O', 'P']",mp-540304,4,LiMo(PO3)4,C2/c
2522,0.029765225,"['Li', 'Mn', 'Ni', 'O']",mp-771548,4,Li5Mn2Ni5O12,C2
2523,0.029843787,"['Li', 'O', 'P', 'V']",mp-540259,4,Li2V(PO4)2,P2_1/c
2524,0.029852673,"['Li', 'Mn', 'O', 'P']",mp-32022,4,LiMnP2O7,P2_1/c
2525,0.029857652,"['Al', 'Li', 'O', 'Si']",mp-1222571,4,LiAlSi3O8,P-1
2526,0.02986019,"['Cr', 'Li', 'Mn', 'O']",mp-775697,4,Li3Mn2CrO6,C2/m
2527,0.029868005,"['Co', 'Li', 'Mn', 'O']",mp-1173929,4,Li2MnCoO4,C2/c
2528,0.029871862,"['Li', 'O', 'P', 'V']",mp-705002,4,Li3V4P9O32,P-42_1c
2529,0.029874229,"['Li', 'Mn', 'O']",mp-1175317,3,Li7Mn5O12,P-1
2530,0.029911084,"['Co', 'Fe', 'Li', 'O']",mp-763089,4,LiFeCo3O8,R-3m
2531,0.029950595,"['Li', 'O', 'W']",mp-771579,3,Li7W5O16,P1
2532,0.029953849,"['Li', 'O', 'Pt']",mp-1177862,3,Li2PtO2,Immm
2533,0.029955216,"['La', 'Li', 'O', 'Ti']",mp-756861,4,LiLa4Ti3O12,P-1
2534,0.029973365,"['Fe', 'Li', 'O', 'Ti']",mp-1177870,4,Li2TiFe3O8,P1
2535,0.029975576,"['Al', 'Li', 'Mg', 'O']",mp-1036528,4,LiMg14AlO16,P4/mmm
2536,0.030001415,"['Cr', 'Li', 'O']",mp-763579,3,Li4Cr5O10,P-1
2537,0.03000647,"['Co', 'Li', 'Mn', 'O']",mp-1175201,4,Li7Mn4CoO12,P1
2538,0.030006766,"['Fe', 'K', 'Li', 'O']",mp-763590,4,K4Li3(FeO4)2,P1
2539,0.030010739,"['Li', 'Mn', 'O', 'P']",mp-1101570,4,Li3Mn(PO4)2,P2_1
2540,0.030014673,"['Fe', 'Li', 'O', 'V']",mp-1222391,4,LiV(FeO2)4,C2/m
2541,0.030028277,"['Li', 'O', 'P', 'V']",mp-1176878,4,Li7V3P8O29,P1
2542,0.030035345,"['Li', 'Mn', 'O', 'P']",mp-762743,4,Li2Mn2(PO4)3,P1
2543,0.030039692,"['Li', 'Mn', 'O']",mp-1176738,3,LiMn7O14,C2/c
2544,0.030041611,"['Fe', 'Li', 'O', 'P']",mp-767225,4,LiFe2(PO4)2,Pc
2545,0.030058939,"['Fe', 'Li', 'O', 'W']",mp-1211052,4,Li2Fe2(WO4)3,Pbcn
2546,0.030066589,"['Cu', 'Li', 'Ni', 'O']",mp-850174,4,Li4Cu2Ni5O12,P2_1
2547,0.030068365,"['Li', 'O', 'Ti', 'V']",mp-763982,4,Li3TiV2O6,C2/m
2548,0.030075674,"['Fe', 'Li', 'O', 'Si']",mp-1222541,4,LiFeSiO4,Pc
2549,0.030088255,"['Fe', 'Li', 'O', 'P']",mp-31837,4,LiFeP2O7,Cc
2550,0.03009459,"['Fe', 'Li', 'O', 'P']",mp-762487,4,LiFeP2O7,P2_1/c
2551,0.030097345,"['Li', 'Mn', 'O', 'P']",mp-765555,4,Li2Mn(PO4)2,P2_1/c
2552,0.030106102,"['K', 'Li', 'O', 'W']",mp-775511,4,KLi(WO3)6,Cm
2553,0.030118704,"['Li', 'O', 'Ti']",mp-34052,3,Li7Ti7O16,R3m
2554,0.030142784,"['Co', 'Cr', 'Li', 'O']",mp-764806,4,Li3CrCo3O8,C2/m
2555,0.030165623,"['Li', 'O', 'P', 'V']",mp-778305,4,Li3V2(PO4)3,Cc
2556,0.030172878,"['Li', 'O', 'P', 'W']",mp-763414,4,Li2P5WO15,P2_1/m
2557,0.030180955,"['Cu', 'Li', 'Ni', 'O']",mp-772355,4,Li3Cu(NiO2)4,C2/m
2558,0.030183872,"['Li', 'Ni', 'O', 'Ti']",mp-771719,4,Li4TiNi3O8,R-3m
2559,0.030211463,"['B', 'Li', 'Mn', 'O']",mp-850264,4,Li5Mn6(BO3)6,P1
2560,0.030213497,"['Li', 'O', 'V']",mp-698647,3,LiVO2,P222
2561,0.030221687,"['Li', 'Mn', 'O']",mp-770260,3,Li8MnO6,R-3
2562,0.030223852,"['Fe', 'Li', 'O']",mp-780305,3,Li6Fe5O12,P1
2563,0.03022522,"['Li', 'O', 'V']",mp-776037,3,LiV4O10,P-1
2564,0.030227584,"['Li', 'O', 'P', 'V']",mp-540417,4,LiVP2O7,P2_1/c
2565,0.030228883,"['Ga', 'Li', 'O', 'V']",mp-775681,4,Li16V3Ga13O32,P1
2566,0.030238482,"['Li', 'Nb', 'O', 'Sr']",mp-766433,4,Sr3Li4Nb6O20,P1
2567,0.030239439,"['Al', 'Co', 'Li', 'O']",mp-771900,4,Li3AlCoO4,I4_1/a
2568,0.030244726,"['Li', 'Mn', 'O']",mp-770537,3,LiMn2O3,C2/c
2569,0.030251396,"['Li', 'Ni', 'O', 'Ti']",mp-770539,4,Li5Ti2Ni5O12,C2
2570,0.030279139,"['Fe', 'Li', 'O']",mp-780207,3,Li5FeO4,P1
2571,0.030309422,"['Li', 'O', 'P', 'V']",mp-540311,4,Li3V(PO4)2,P2_1/c
2572,0.03031274,"['B', 'Fe', 'Li', 'O']",mp-771068,4,Li2FeBO4,Pc
2573,0.03032891,"['Li', 'O', 'P', 'V']",mp-540344,4,Li3V(PO4)2,P2_1/c
2574,0.030359948,"['Li', 'Mn', 'O']",mp-1100484,3,Li9Mn7O16,C2/m
2575,0.030373862,"['Ce', 'Li', 'O', 'W']",mp-1211203,4,LiCe(WO4)2,P-1
2576,0.030377532,"['La', 'Li', 'O', 'Ti']",mp-766995,4,LiLa3Ti2O9,P2_1/c
2577,0.030381858,"['Li', 'Ni', 'O']",mp-632491,3,Li(NiO2)2,Fd-3m
2578,0.030402022,"['Fe', 'Li', 'O', 'Ti']",mp-775791,4,Li2TiFe2O5,P1
2579,0.030483631,"['Li', 'Mn', 'O']",mp-769702,3,LiMn4O8,C2/m
2580,0.030494278,"['Cr', 'Li', 'O']",mp-1178024,3,Li2Cr2O7,C2/c
2581,0.030546697,"['Li', 'Mn', 'Ni', 'O']",mp-771810,4,Li2MnNi3O8,R-3m
2582,0.030552606,"['Li', 'Mn', 'O', 'V']",mp-775106,4,Li2MnV3O8,R3m
2583,0.030588371,"['Li', 'O', 'P', 'V']",mp-32495,4,Li3V3(PO4)4,P2_1/c
2584,0.03060016,"['Li', 'Mn', 'O', 'P']",mp-705355,4,Li2Mn(PO3)5,P2_1/m
2585,0.030605906,"['Li', 'Mn', 'O', 'P']",mp-697792,4,LiMn2(PO4)3,Cc
2586,0.030608195,"['Co', 'Li', 'O', 'V']",mp-761722,4,LiVCoO4,P4_322
2587,0.030617076,"['Li', 'Nb', 'O', 'V']",mp-765810,4,Li3Nb4VO12,P1
2588,0.030621237,"['Fe', 'Li', 'O', 'Ti']",mp-769463,4,Li11Ti8Fe5O32,P1
2589,0.030634169,"['Cu', 'Li', 'O', 'P']",mp-773438,4,Li5Cu(PO4)2,P1
2590,0.03066906,"['Cu', 'Li', 'O', 'P']",mp-780392,4,Li5Cu(PO4)2,P1
2591,0.030670464,"['Fe', 'Li', 'O', 'V']",mp-775811,4,LiVFeO4,P4_322
2592,0.030671195,"['Li', 'Mo', 'O']",mp-690581,3,Li6Mo2O7,Pma2
2593,0.030680796,"['Cr', 'Li', 'O', 'P']",mp-31631,4,LiCr2(PO4)3,P-1
2594,0.030692459,"['Li', 'Ni', 'O']",mp-997538,3,Li9Ni15O28,P-1
2595,0.030703,"['Co', 'Li', 'Mn', 'O']",mp-1175268,4,Li7Mn4CoO12,C2/m
2596,0.030725266,"['Cu', 'Li', 'O', 'P']",mp-26303,4,Li6Cu9(PO4)8,P-1
2597,0.030745695,"['Li', 'O', 'Ti']",mp-867613,3,LiTi4O8,P1
2598,0.030748073,"['Fe', 'Li', 'O', 'P']",mp-540313,4,LiFe(PO3)3,P-1
2599,0.030772402,"['Fe', 'Li', 'O', 'P']",mp-705376,4,LiFe5(P2O7)4,P-1
2600,0.030790261,"['K', 'Li', 'O', 'Sn']",mp-1178142,4,KLiSnO2,C2/m
2601,0.030790898,"['Li', 'Mo', 'O', 'P']",mp-540309,4,Li3Mo2(PO4)3,C2/m
2602,0.030794595,"['Fe', 'Li', 'O']",mp-780188,3,Li6Fe5O12,C2
2603,0.030830407,"['Li', 'Ni', 'O']",mp-775354,3,Li5NiO4,Aea2
2604,0.030840275,"['Li', 'Ni', 'O']",mp-762386,3,Li3(NiO2)5,P1
2605,0.030844038,"['B', 'Li', 'Mn', 'O']",mp-776789,4,Li5Mn6(BO3)6,P1
2606,0.030844997,"['Li', 'O', 'Re']",mp-756519,3,Li(ReO3)4,Immm
2607,0.030848289,"['Li', 'Ni', 'O', 'P']",mp-1101500,4,LiNi2(PO3)5,Pc
2608,0.030860184,"['Co', 'Fe', 'Li', 'O']",mp-763028,4,Li4FeCo9O20,P1
2609,0.03086848,"['B', 'Li', 'Mn', 'O']",mp-1177630,4,Li3Mn4(BO3)4,P1
2610,0.030873049,"['B', 'Li', 'Mn', 'O']",mp-850245,4,Li5Mn6(BO3)6,Cm
2611,0.030917455,"['Co', 'Li', 'O', 'Ti']",mp-775109,4,Li2TiCo3O8,R-3m
2612,0.030946214,"['Li', 'Ni', 'O']",mp-773516,3,Li3NiO3,P4_2/mnm
2613,0.030987915,"['Li', 'O', 'V']",mp-776654,3,Li7V5O12,C2
2614,0.031000218,"['Co', 'Li', 'Mn', 'O']",mp-1173936,4,Li3Mn2CoO6,C2/m
2615,0.031015763,"['B', 'Cu', 'Li', 'O']",mp-1194301,4,Li3CuB3O7,P-1
2616,0.031027144,"['B', 'Fe', 'Li', 'O']",mp-771071,4,Li2FeBO4,Pna2_1
2617,0.031031725,"['Li', 'Ni', 'O', 'P']",mp-705432,4,Li6Ni5(P2O7)4,P-1
2618,0.031048548,"['Fe', 'Li', 'Nb', 'O']",mp-1177575,4,Li3Nb(FeO2)4,C2/m
2619,0.031052629,"['Co', 'Li', 'O', 'P']",mp-775324,4,Li11Co12(PO4)12,P-1
2620,0.0310586,"['Li', 'V', 'O']",mp-775331,3,LiVO2,Imma
2621,0.031080105,"['Ho', 'Li', 'Mo', 'O']",mp-1222932,4,Li7Ho3(MoO4)8,P1
2622,0.031083178,"['Li', 'Mn', 'O', 'P']",mp-850454,4,Li3Mn2(P2O7)2,Pc
2623,0.031087025,"['Cr', 'Li', 'O', 'P']",mp-705154,4,LiCr4P7O24,P-1
2624,0.031095565,"['Co', 'Li', 'Mn', 'O']",mp-1174262,4,Li4Mn3CoO8,P-1
2625,0.031136497,"['B', 'Li', 'Ni', 'O']",mp-766153,4,LiNiBO3,Cc
2626,0.03113702,"['Cr', 'Li', 'Mn', 'O']",mp-771509,4,Li5Mn5Cr2O12,C2
2627,0.031206968,"['B', 'Fe', 'Li', 'O']",mp-764703,4,Li3Fe4(BO3)4,P1
2628,0.031219919,"['Fe', 'Li', 'O', 'P']",mp-1177139,4,Li5Fe2P5O18,P-1
2629,0.031238838,"['Cr', 'Li', 'Ni', 'O']",mp-1177063,4,Li9Cr12Ni7O48,P1
2630,0.031251484,"['Li', 'Nb', 'O', 'Sr']",mp-1218571,4,Sr3Li4Nb6O20,Amm2
2631,0.031269113,"['Fe', 'Li', 'O', 'Si']",mp-764340,4,Li2FeSiO4,Pna2_1
2632,0.031273225,"['Li', 'Mn', 'O', 'V']",mp-765660,4,Li4Mn2V3O12,P2_1/c
2633,0.031303448,"['Li', 'Mn', 'O']",mp-1100482,3,Li9Mn7O16,P2/m
2634,0.031323357,"['Co', 'Li', 'Mn', 'O']",mp-774071,4,Li2Mn3(CoO4)3,P-1
2635,0.031333095,"['Li', 'Mn', 'O']",mp-1100496,3,Li9Mn7O16,C2/m
2636,0.031337312,"['C', 'Li', 'O', 'V']",mp-763116,4,LiV(CO3)2,I-42d
2637,0.031350674,"['Li', 'Nb', 'O']",mp-531409,3,Li7Nb8O24,P1
2638,0.031356809,"['Fe', 'Li', 'O', 'Si']",mp-767253,4,LiFeSiO4,C222_1
2639,0.031358736,"['Li', 'O', 'P', 'Zr']",mp-773074,4,LiZr2(PO4)3,P1
2640,0.031359856,"['B', 'Li', 'Mn', 'O']",mp-777612,4,Li3Mn4(BO3)4,P1
2641,0.031400161,"['Cr', 'Li', 'Ni', 'O']",mp-1178023,4,Li2CrNiO4,P2/m
2642,0.031435747,"['Co', 'Li', 'O', 'P']",mp-504376,4,Li6Co5(P2O7)4,P-1
2643,0.031438305,"['Cu', 'Li', 'O', 'P']",mp-779472,4,Li5Cu(PO4)2,P1
2644,0.031439772,"['Cr', 'Li', 'O', 'P']",mp-540209,4,Li2Cr3(P2O7)2,P-1
2645,0.031444866,"['B', 'Li', 'Mn', 'O']",mp-780137,4,Li3Mn4(BO3)4,P-1
2646,0.031448117,"['Cu', 'Li', 'O', 'P']",mp-26247,4,Li5Cu(PO4)2,P1
2647,0.031458489,"['Fe', 'Li', 'O', 'P']",mp-31779,4,Li3Fe2(PO4)3,C2/m
2648,0.031486998,"['Fe', 'Li', 'O', 'P']",mp-697811,4,Li2FeP2O7,P1
2649,0.031489072,"['Fe', 'Li', 'O', 'P']",mp-767795,4,LiFeP2O7,Pc
2650,0.031515543,"['B', 'Li', 'Mn', 'O']",mp-850166,4,Li5Mn6(BO3)6,P1
2651,0.031526553,"['Li', 'O', 'P', 'Sb']",mp-26675,4,LiSb(PO3)4,P2_1/c
2652,0.031530576,"['Co', 'Fe', 'Li', 'O']",mp-853174,4,LiFeCoO4,Imma
2653,0.031535048,"['Co', 'Li', 'Mn', 'O']",mp-1175221,4,Li7Mn4CoO12,P1
2654,0.031536926,"['Co', 'Li', 'Mn', 'O']",mp-1175158,4,Li7Mn4CoO12,P-1
2655,0.03154959,"['Li', 'O', 'P', 'W']",mp-763392,4,LiP4WO12,C2/m
2656,0.031580851,"['Li', 'Ni', 'O', 'Ti']",mp-775328,4,Li2TiNi3O8,P2_12_12_1
2657,0.031581491,"['Li', 'Ni', 'O', 'Si']",mp-1177885,4,Li2Si4Ni2O11,P-1
2658,0.031602963,"['Li', 'Cr', 'Fe', 'O']",mp-771605,4,Li2CrFeO4,I-4m2
2659,0.03161435,"['Cr', 'Li', 'O', 'P']",mp-31688,4,LiCr2(PO4)3,Pna2_1
2660,0.031623541,"['Li', 'O', 'P', 'V']",mp-1177238,4,Li5V3P8O29,P1
2661,0.031624515,"['Li', 'O', 'Si', 'V']",mp-761603,4,LiV(SiO3)2,P-1
2662,0.031643231,"['Li', 'Mn', 'O', 'P']",mp-774345,4,Li2Mn2(PO4)3,P-1
2663,0.031657092,"['Li', 'O', 'P', 'W']",mp-762190,4,LiP4WO12,P2_1/c
2664,0.031659334,"['Fe', 'Li', 'O', 'V']",mp-1177237,4,Li4V3(FeO6)2,P2_1/c
2665,0.031668527,"['Li', 'O', 'P', 'V']",mp-1177059,4,Li5V3P8O29,Cc
2666,0.031668846,"['Li', 'O', 'Ti']",mp-762351,3,Li4Ti7O16,Cm
2667,0.031696013,"['Ba', 'Li', 'O', 'Ru']",mp-1228662,4,Ba7Li3(RuO5)4,C2
2668,0.03169912,"['Li', 'O', 'P', 'V']",mp-1177217,4,Li5V3P8O29,P1
2669,0.031703115,"['Li', 'O', 'Ti']",mp-766543,3,Li7Ti11O24,Pm
2670,0.031706187,"['B', 'Li', 'Mn', 'O']",mp-850168,4,Li5Mn6(BO3)6,Pm
2671,0.031714512,"['Fe', 'Li', 'O', 'V']",mp-1177788,4,Li2VFeO4,P2/m
2672,0.031725102,"['Li', 'O', 'P', 'V']",mp-766613,4,LiVP2O7,Cc
2673,0.031760239,"['B', 'Li', 'Mn', 'O']",mp-851023,4,Li3Mn4(BO3)4,P1
2674,0.031774353,"['Fe', 'Li', 'O', 'P']",mp-772427,4,Li3Fe(PO4)2,C2/c
2675,0.03178445,"['Li', 'O', 'P', 'V']",mp-1177064,4,Li5V3P8O29,P1
2676,0.031792043,"['Co', 'Li', 'O']",mp-762472,3,Li9Co13O28,P1
2677,0.03179938,"['Li', 'O', 'P', 'V']",mp-761380,4,Li3V(PO4)2,C2/c
2678,0.03180521,"['Co', 'Li', 'Mn', 'O']",mp-1175202,4,Li7Mn4CoO12,P1
2679,0.031823231,"['Ge', 'Li', 'O', 'V']",mp-853190,4,LiVGeO5,P2_1/m
2680,0.031827815,"['Co', 'Li', 'Mn', 'O']",mp-1175226,4,Li7Mn4CoO12,P1
2681,0.031838678,"['Li', 'Mn', 'O']",mp-1100513,3,Li9Mn7O16,P-1
2682,0.031867606,"['Fe', 'Li', 'O', 'P']",mp-704186,4,LiFe4(PO4)3,Pnma
2683,0.031879819,"['B', 'Li', 'Mn', 'O']",mp-851280,4,Li3Mn4(BO3)4,P-1
2684,0.031888318,"['Li', 'O', 'P', 'V']",mp-765307,4,Li5V3P8O29,P1
2685,0.031896214,"['Li', 'Mn', 'O']",mp-1174378,3,Li4Mn3O7,C2/m
2686,0.031909294,"['Li', 'Mn', 'O']",mp-762411,3,LiMn3O6,C2/m
2687,0.031921685,"['Cu', 'Li', 'O', 'P']",mp-26531,4,LiCu2P3O10,P2_1/m
2688,0.031940695,"['Li', 'Ni', 'O', 'P']",mp-540518,4,Li4Ni3P4O15,Pna2_1
2689,0.031941196,"['Li', 'O', 'P', 'V']",mp-1177126,4,Li5V3P8O29,Cc
2690,0.031945662,"['B', 'Li', 'Mn', 'O']",mp-781610,4,Li3Mn4(BO3)4,P-1
2691,0.031956792,"['Li', 'Ni', 'O', 'P']",mp-540246,4,LiNiPO4,Cc
2692,0.031983553,"['Fe', 'Li', 'O', 'V']",mp-775175,4,LiVFeO4,Imma
2693,0.031988587,"['Co', 'Li', 'O', 'P']",mp-31615,4,Li4Co5(P3O11)2,P2_1/c
2694,0.032006437,"['Li', 'O', 'P', 'V']",mp-766642,4,Li5V3P8O29,P1
2695,0.032012086,"['Fe', 'Li', 'O', 'Si']",mp-778685,4,LiFe(SiO3)2,Cc
2696,0.032034024,"['Fe', 'Li', 'Mg', 'O']",mp-1037593,4,LiMg30FeO32,P4/mmm
2697,0.032041305,"['Li', 'Nb', 'O', 'P']",mp-777751,4,Li3Nb3P8O29,C2/c
2698,0.032044869,"['Li', 'O', 'Ti']",mp-977334,3,LiTi2O4,P2_1/m
2699,0.032053337,"['Li', 'O', 'P', 'V']",mp-540330,4,Li2V(PO3)5,P2_1/m
2700,0.03208043,"['Co', 'Li', 'Mn', 'O']",mp-1174183,4,Li4Mn3CoO8,P-1