,e_above_hull,elements,material_id,nelements,pretty_formula,spacegroup.symbol
2701,0.03208791,"['Li', 'Ni', 'O']",mp-762580,3,Li5(NiO2)8,P1
2702,0.032105926,"['Co', 'Li', 'Mn', 'O']",mp-1174205,4,Li4Mn3CoO8,P-1
2703,0.032106569,"['Li', 'O', 'P', 'V']",mp-1177042,4,Li5V3P8O29,Cc
2704,0.032119357,"['Ca', 'Li', 'Nb', 'O']",mp-773024,4,LiCa2Nb3O10,Pc
2705,0.032123523,"['B', 'Li', 'Mn', 'O']",mp-850178,4,Li5Mn6(BO3)6,Cm
2706,0.032149472,"['Li', 'O', 'P', 'V']",mp-32516,4,LiV2P3O11,C2
2707,0.032163017,"['Co', 'Li', 'Ni', 'O']",mp-779977,4,Li2Co3NiO8,C2/m
2708,0.032178416,"['Fe', 'Li', 'O', 'Ti']",mp-777591,4,Li4Ti5Fe3O16,Cm
2709,0.032180523,"['Li', 'Mn', 'O']",mp-1175337,3,Li7Mn5O12,P-1
2710,0.032192699,"['Li', 'Mn', 'O', 'P']",mp-850463,4,Li3Mn2(P2O7)2,P1
2711,0.032237578,"['Co', 'Li', 'Mn', 'O']",mp-1175219,4,Li7Mn4CoO12,P1
2712,0.03226176,"['Li', 'O', 'P', 'V']",mp-765086,4,Li5V3P8O29,P1
2713,0.032284253,"['Li', 'Mn', 'O', 'Ti']",mp-853187,4,LiTiMnO4,Imma
2714,0.03231463,"['Li', 'Mn', 'O']",mp-1175334,3,Li7Mn5O12,P-1
2715,0.032315856,"['Li', 'O', 'P', 'V']",mp-763583,4,LiVP2O7,P2_1/c
2716,0.032322737,"['Cu', 'Li', 'O', 'P']",mp-778743,4,Li5Cu(PO4)2,Pm
2717,0.032328038,"['Co', 'Li', 'Mn', 'O']",mp-1174215,4,Li4Mn3CoO8,P-1
2718,0.032344086,"['Cr', 'Li', 'O', 'Ti']",mp-771516,4,Li4Ti3Cr5O16,Cm
2719,0.032353752,"['B', 'Li', 'Mn', 'O']",mp-849413,4,Li5Mn6(BO3)6,Cm
2720,0.032393312,"['Li', 'Cu', 'O']",mp-25317,3,Li3(CuO2)2,C2
2721,0.032409266,"['Li', 'O', 'Ta']",mp-28891,3,Li7TaO6,R3
2722,0.03241662,"['Li', 'O', 'P', 'V']",mp-765155,4,Li5V3P8O29,P1
2723,0.032430371,"['Li', 'Mn', 'O', 'P']",mp-849996,4,Li3Mn2(P2O7)2,P1
2724,0.032431873,"['Li', 'Mn', 'O']",mp-1100580,3,Li9Mn7O16,P2/m
2725,0.032466985,"['B', 'Li', 'Mn', 'O']",mp-849675,4,Li5Mn6(BO3)6,Cm
2726,0.032467914,"['B', 'Li', 'Mn', 'O']",mp-781079,4,Li3Mn4(BO3)4,P1
2727,0.032478843,"['Cr', 'Li', 'O', 'P']",mp-540292,4,LiCrPO5,P-1
2728,0.032489479,"['Cr', 'Li', 'O', 'Ti']",mp-777904,4,Li2Ti3CrO8,P6_3mc
2729,0.032515483,"['Cr', 'Li', 'O', 'P']",mp-504361,4,Li6Cr3P8O29,P1
2730,0.032516128,"['Li', 'O', 'P', 'Sb']",mp-26541,4,LiSb(PO3)4,C222_1
2731,0.032519765,"['Co', 'Li', 'O']",mp-690149,3,Li(CoO2)8,P-1
2732,0.032520129,"['Co', 'Li', 'Mn', 'O']",mp-1175161,4,Li7Mn4CoO12,P-1
2733,0.032526392,"['Li', 'Mn', 'O']",mp-1100494,3,Li9Mn7O16,C2/m
2734,0.032553601,"['Li', 'Mg', 'Ni', 'O']",mp-769569,4,Li6MgNi7O16,P-1
2735,0.032565508,"['B', 'Li', 'Mn', 'O']",mp-849503,4,Li5Mn6(BO3)6,Cm
2736,0.032566145,"['Li', 'Mn', 'O']",mp-1004762,3,LiMn4O8,Cmc2_1
2737,0.032568584,"['Cr', 'Li', 'O']",mp-770862,3,Li2Cr2O7,P-1
2738,0.032598268,"['Li', 'O', 'P', 'V']",mp-853178,4,Li5V3P8O29,Cc
2739,0.03260051,"['Li', 'Mn', 'O', 'P']",mp-764045,4,Li3Mn(PO4)2,P1
2740,0.032601492,"['Li', 'Mn', 'O']",mp-1174646,3,Li5Mn3O8,P2/m
2741,0.032610519,"['B', 'Li', 'Mn', 'O']",mp-849498,4,Li5Mn6(BO3)6,Cm
2742,0.03261406,"['Li', 'Mn', 'O', 'P']",mp-1177662,4,Li3Mn2(P2O7)2,Pc
2743,0.032628922,"['Li', 'Ni', 'O', 'P']",mp-861137,4,LiNi4(PO4)3,C2/c
2744,0.032639898,"['Li', 'Mn', 'Ni', 'O']",mp-762612,4,Li4Mn(Ni2O5)2,P-1
2745,0.032645204,"['Li', 'O', 'P', 'V']",mp-1177093,4,Li5V3P8O29,P1
2746,0.032645837,"['Co', 'Li', 'O']",mp-850954,3,Li21(CoO4)4,Pc
2747,0.032649713,"['Fe', 'Li', 'O', 'P']",mp-31828,4,Li3Fe3(PO4)4,C2/c
2748,0.032677567,"['Co', 'Li', 'O', 'Ru']",mp-1222636,4,Li3Co2RuO6,C2/m
2749,0.032679063,"['Cu', 'Li', 'O', 'P']",mp-772939,4,Li5Cu(PO4)2,P1
2750,0.03268141,"['Li', 'O', 'P', 'V']",mp-1177091,4,Li5V3P8O29,P1
2751,0.032754642,"['Li', 'Mn', 'O', 'V']",mp-775492,4,Li2MnV3O8,P2_12_12_1
2752,0.032757187,"['Cr', 'Ga', 'Li', 'O']",mp-770660,4,Li12CrGa11O24,P1
2753,0.032763494,"['Fe', 'Li', 'O', 'P']",mp-764138,4,Li3Fe(PO4)2,Pc
2754,0.032774472,"['Li', 'Ni', 'O', 'P']",mp-540153,4,LiNi(PO3)4,C2/c
2755,0.032777407,"['Li', 'O', 'P', 'V']",mp-1177058,4,Li5V3P8O29,P1
2756,0.032790439,"['Li', 'Mn', 'O', 'Si']",mp-850949,4,LiMnSiO4,P2_1
2757,0.032791767,"['Fe', 'Li', 'O', 'Sn']",mp-1176679,4,LiFeSnO4,P4_322
2758,0.032803975,"['B', 'Fe', 'Li', 'O']",mp-764539,4,Li3Fe4(BO3)4,P1
2759,0.032807325,"['As', 'Li', 'Mo', 'O']",mp-569027,4,LiMoAsO6,Pna2_1
2760,0.032815265,"['Li', 'O', 'P', 'V']",mp-32465,4,LiV(PO4)2,P2_1/c
2761,0.032817042,"['B', 'Fe', 'Li', 'O']",mp-769446,4,Li11Fe12(BO3)12,P1
2762,0.032828284,"['Li', 'Co', 'O']",mp-762036,3,Li(CoO2)2,Pbcn
2763,0.032828714,"['Li', 'Mn', 'O']",mp-1175316,3,Li7Mn5O12,P-1
2764,0.032858326,"['Fe', 'Li', 'O', 'P']",mp-849393,4,Li8Fe7(PO4)8,Pmn2_1
2765,0.032870281,"['Li', 'Mn', 'O', 'P']",mp-32024,4,Li3Mn2(PO4)3,Cc
2766,0.032870387,"['Li', 'Mo', 'O', 'P']",mp-1101539,4,Li2Mo(PO4)2,P2_1
2767,0.032874236,"['Li', 'Mg', 'Ni', 'O']",mp-997535,4,Li9Mg(Ni6O13)2,P1
2768,0.032889523,"['Li', 'Mn', 'O']",mp-763710,3,Li3Mn4O8,C2/m
2769,0.032933301,"['Li', 'O', 'P', 'V']",mp-1177076,4,Li5V3P8O29,P1
2770,0.032951456,"['B', 'Fe', 'Li', 'O']",mp-764653,4,Li3Fe4(BO3)4,P1
2771,0.032960494,"['B', 'Li', 'Mn', 'O']",mp-850437,4,Li5Mn6(BO3)6,Cm
2772,0.032960534,"['B', 'Li', 'Mn', 'O']",mp-781619,4,Li3Mn4(BO3)4,P1
2773,0.032975426,"['B', 'Li', 'Mn', 'O']",mp-779179,4,Li5Mn6(BO3)6,Cm
2774,0.032980823,"['Cr', 'Li', 'Ni', 'O']",mp-762507,4,Li2CrNiO4,Imma
2775,0.032990573,"['Cr', 'Li', 'O', 'P']",mp-1101550,4,Li2Cr(PO3)5,P2_1/m
2776,0.032992789,"['B', 'Li', 'O', 'V']",mp-778789,4,Li4V(BO3)2,Pnnm
2777,0.033019587,"['Al', 'Li', 'O', 'Si']",mp-559689,4,LiAlSiO4,Pna2_1
2778,0.033062748,"['Cr', 'Li', 'O', 'P']",mp-540392,4,LiCrPO4,P-1
2779,0.033063907,"['Li', 'O', 'V']",mp-1177621,3,Li3V24O58,P1
2780,0.033064542,"['Li', 'O', 'P', 'V']",mp-1177056,4,Li5V3P8O29,P1
2781,0.033065384,"['B', 'Li', 'Mn', 'O']",mp-849508,4,Li5Mn6(BO3)6,Pm
2782,0.033070688,"['Li', 'Mn', 'O']",mp-1174519,3,Li5Mn3O8,C2/m
2783,0.033084194,"['Li', 'Mg', 'O', 'Ti']",mp-1177654,4,Li3MgTi8O16,R3m
2784,0.033089762,"['Li', 'Mn', 'O']",mp-764701,3,Li8Mn5O10,P1
2785,0.033095163,"['Li', 'O', 'P', 'V']",mp-1177131,4,Li5V3P8O29,Cc
2786,0.033104126,"['Fe', 'Li', 'O']",mp-762692,3,Li5Fe11O16,P1
2787,0.033105705,"['Li', 'Mn', 'O', 'P']",mp-776889,4,LiMn2(PO4)3,P2_1/c
2788,0.033115168,"['Cu', 'Li', 'O']",mp-25248,3,Li4(CuO2)3,C2/m
2789,0.033151305,"['Co', 'Li', 'O', 'P']",mp-767244,4,LiCoP2O7,P-1
2790,0.033151437,"['B', 'Li', 'Mn', 'O']",mp-849259,4,Li3Mn4(BO3)4,P1
2791,0.033157514,"['Li', 'Mn', 'O']",mp-775739,3,LiMn28O56,R3
2792,0.033162453,"['Li', 'O', 'P', 'V']",mp-32502,4,LiV(PO3)4,C2/m
2793,0.033168464,"['Li', 'O', 'P', 'V']",mp-762979,4,Li5V3P8O29,P1
2794,0.033178546,"['Li', 'Mn', 'O']",mp-1100483,3,Li9Mn7O16,P2/m
2795,0.033183374,"['Co', 'Li', 'Ni', 'O']",mp-772319,4,Li4Co3Ni5O16,Cm
2796,0.033225003,"['Li', 'Ni', 'O']",mp-771921,3,LiNiO2,P-1
2797,0.033232592,"['Li', 'O', 'P', 'V']",mp-762957,4,Li5V3P8O29,Cc
2798,0.033238842,"['Co', 'Cr', 'Li', 'O']",mp-769741,4,Li4Cr3CoO8,P2/m
2799,0.033245357,"['B', 'Li', 'Mn', 'O']",mp-779226,4,Li5Mn6(BO3)6,Cm
2800,0.033280136,"['Fe', 'Li', 'O', 'P']",mp-504385,4,Li3Fe2(PO4)3,P2/c
2801,0.033285857,"['Cr', 'Li', 'O', 'P']",mp-777630,4,Li2CrP2O7,P2_1
2802,0.033322968,"['Li', 'O', 'V']",mp-1177719,3,Li3V5O8,R-3m
2803,0.033328034,"['Li', 'Mn', 'O']",mp-1100510,3,Li9Mn7O16,P-1
2804,0.033337454,"['Li', 'Mn', 'O', 'Ti']",mp-777480,4,Li2Ti3MnO8,P6_3mc
2805,0.033340047,"['Cr', 'Li', 'Ni', 'O']",mp-771459,4,Li4CrNi3O8,R-3m
2806,0.033344915,"['Li', 'Mn', 'O']",mp-1175332,3,Li7Mn5O12,P-1
2807,0.033349032,"['Li', 'Mn', 'O', 'P']",mp-767561,4,Li3Mn4(PO4)6,P1
2808,0.033357828,"['B', 'Li', 'Mn', 'O']",mp-779341,4,Li3Mn4(BO3)4,P1
2809,0.033367735,"['Li', 'Ni', 'O', 'Sn']",mp-770486,4,Li3Ni2SnO6,C2/m
2810,0.033384955,"['Li', 'Mn', 'O']",mp-36240,3,LiMn8O16,Pmmn
2811,0.033387911,"['Li', 'Mo', 'O', 'P']",mp-705333,4,LiMo(PO4)2,P2_12_12_1
2812,0.033408622,"['K', 'Li', 'Mn', 'O']",mp-773442,4,K2Li3MnO4,P2_1/c
2813,0.033416255,"['Co', 'Li', 'O']",mp-1173883,3,Li2CoO3,P-1
2814,0.033443538,"['Fe', 'Li', 'O', 'P']",mp-1222420,4,LiFe4(PO4)4,Imm2
2815,0.033471172,"['Li', 'Nb', 'O']",mp-552588,3,LiNbO3,R-3c
2816,0.033476132,"['B', 'Li', 'Mn', 'O']",mp-780182,4,Li3Mn4(BO3)4,P1
2817,0.033519204,"['B', 'Li', 'Mn', 'O']",mp-780180,4,Li3Mn4(BO3)4,P1
2818,0.033525125,"['Li', 'Mn', 'O']",mp-1100493,3,Li9Mn7O16,C2/m
2819,0.033536411,"['Li', 'Mn', 'O']",mp-34650,3,LiMn3O4,C2/m
2820,0.033540965,"['Li', 'Mn', 'O']",mp-1175328,3,Li7Mn5O12,P-1
2821,0.033542656,"['Li', 'Mn', 'O']",mp-1174498,3,Li5Mn3O8,C2/m
2822,0.033550525,"['Cu', 'Li', 'O', 'P']",mp-779046,4,Li5Cu(PO4)2,Pc
2823,0.03355114,"['Li', 'O', 'P', 'V']",mp-774179,4,Li5V3P8O29,P1
2824,0.033556812,"['Fe', 'Li', 'Nb', 'O']",mp-765299,4,Li2NbFe3O8,P4_332
2825,0.033572282,"['Cr', 'Li', 'O']",mp-1178001,3,Li2CrO2,Immm
2826,0.033572667,"['Li', 'O', 'P', 'V']",mp-1177086,4,Li5V3P8O29,P1
2827,0.033590341,"['Li', 'Mn', 'O']",mp-1100487,3,Li9Mn7O16,C2/m
2828,0.033596872,"['Li', 'Mn', 'O', 'P']",mp-850465,4,Li3Mn2(P2O7)2,P1
2829,0.033602756,"['Li', 'Mo', 'O']",mp-1223041,3,Li11(MoO2)12,P-1
2830,0.033608054,"['Li', 'O', 'P', 'V']",mp-762297,4,Li5V3P8O29,P1
2831,0.033610384,"['Fe', 'Li', 'O', 'P']",mp-1177430,4,Li4Fe2(PO4)3,P-1
2832,0.033636788,"['Co', 'Li', 'O']",mp-1173887,3,Li2CoO3,P-1
2833,0.033652672,"['Li', 'Ni', 'O', 'P']",mp-32384,4,Li4Ni7(PO4)6,Cm
2834,0.033654094,"['K', 'Li', 'O', 'W']",mp-1178148,4,KLi(WO3)3,P1
2835,0.033659703,"['Cr', 'Li', 'O']",mp-771523,3,LiCr2O4,Cc
2836,0.033669548,"['Li', 'Mn', 'Ni', 'O']",mp-762635,4,Li3Mn3NiO8,P-1
2837,0.033674158,"['Co', 'Li', 'Ni', 'O']",mp-868421,4,Li6CoNi5O12,P-1
2838,0.0336922,"['Co', 'Li', 'Ni', 'O']",mp-766767,4,Li5Co2Ni5O12,C2
2839,0.033705772,"['Li', 'Mn', 'O', 'Sb']",mp-776741,4,Li2Mn3SbO8,P4_332
2840,0.033723364,"['Li', 'O', 'P', 'Sb']",mp-684508,4,LiSb2(PO4)3,P2_1/c
2841,0.033731538,"['Co', 'Li', 'O', 'P']",mp-697726,4,Li2CoP2O7,P-1
2842,0.033738018,"['Li', 'Mn', 'O']",mp-694894,3,LiMn12O24,P2/c
2843,0.033741038,"['Ga', 'Li', 'O']",mp-774753,3,Li5GaO4,Pbca
2844,0.033742102,"['Li', 'Ni', 'O', 'P']",mp-540248,4,LiNiPO4,Pna2_1
2845,0.033742493,"['Gd', 'Li', 'O', 'Ru']",mp-1211045,4,LiGd2RuO6,P2_1/c
2846,0.033761649,"['Li', 'O', 'P', 'V']",mp-774190,4,Li5V3P8O29,P1
2847,0.033771942,"['Li', 'O', 'P', 'V']",mp-1177180,4,Li5V3P8O29,P1
2848,0.033782804,"['Li', 'O', 'P', 'V']",mp-765137,4,Li5V3P8O29,P1
2849,0.033784698,"['Li', 'O', 'P', 'V']",mp-1177089,4,Li5V3P8O29,P1
2850,0.033803393,"['Li', 'O', 'Ti']",mp-676365,3,Li2TiO3,C2/c
2851,0.033816069,"['Li', 'Ni', 'O', 'Ti']",mp-770852,4,Li2TiNi2O5,C2
2852,0.03383074,"['Li', 'Ni', 'O', 'P']",mp-540255,4,LiNiPO4,P2_1/c
2853,0.033833377,"['Li', 'Nb', 'O', 'Ti']",mp-767498,4,Li10Ti11Nb6O42,P3
2854,0.03383348,"['Li', 'O', 'P', 'V']",mp-775505,4,Li5V3P8O29,P1
2855,0.033840371,"['Cu', 'Fe', 'Li', 'O']",mp-772689,4,Li2Fe3CuO8,R-3m
2856,0.033861083,"['Li', 'O', 'P', 'V']",mp-762956,4,Li5V3P8O29,Cc
2857,0.033863345,"['Fe', 'Li', 'O', 'Ti']",mp-775518,4,Li5Ti6FeO16,Pm
2858,0.033880319,"['Li', 'O', 'Ti', 'V']",mp-770960,4,Li3TiV3O8,R-3m
2859,0.033899089,"['Li', 'Ni', 'O', 'P']",mp-1177087,4,Li5Ni6(P2O7)4,P-1
2860,0.033918934,"['Cu', 'Li', 'O', 'P']",mp-26311,4,Li5Cu(PO4)2,Pc
2861,0.033921654,"['Co', 'Li', 'O']",mp-997525,3,Li4Co15O28,P-1
2862,0.033945527,"['Ba', 'Li', 'O', 'Ta']",mp-772523,4,Ba8LiTa7O24,P3m1
2863,0.033950939,"['B', 'Cr', 'Li', 'O']",mp-765262,4,Li3Cr(BO3)2,P2_1/c
2864,0.033951212,"['Li', 'Mn', 'O', 'P']",mp-1177664,4,Li3Mn2(P2O7)2,P1
2865,0.033954134,"['Li', 'Ni', 'O', 'P']",mp-705448,4,LiNiPO4,Cc
2866,0.033960535,"['Co', 'Li', 'Mn', 'O']",mp-1175184,4,Li7Mn4CoO12,P1
2867,0.033969092,"['Co', 'Li', 'O', 'P']",mp-540375,4,LiCoP2O7,P2_1/c
2868,0.033976371,"['Li', 'Mn', 'O', 'P']",mp-777093,4,LiMnP2O7,P2_1/c
2869,0.033978359,"['Li', 'Mn', 'O']",mp-770866,3,LiMn5O8,P4_332
2870,0.033979732,"['Li', 'O', 'P', 'V']",mp-762984,4,Li5V3P8O29,P1
2871,0.033994594,"['Cr', 'Li', 'O', 'V']",mp-769583,4,Li3VCr3O8,P1
2872,0.033999839,"['Li', 'O', 'P', 'V']",mp-1177165,4,Li5V3P8O29,P1
2873,0.034033461,"['Cr', 'Cu', 'Li', 'O']",mp-773344,4,Li2CrCuO4,Imma
2874,0.034038975,"['Li', 'O', 'P', 'V']",mp-775382,4,Li5V3P8O29,P1
2875,0.034041995,"['Li', 'Mn', 'O', 'P']",mp-705357,4,LiMnP2O7,P2_1/c
2876,0.034050251,"['Li', 'Ni', 'O']",mp-25587,3,LiNiO2,Cm
2877,0.034054474,"['Li', 'Mn', 'O', 'P']",mp-540331,4,LiMn(PO3)4,C2/m
2878,0.034057061,"['Co', 'Li', 'Mn', 'O']",mp-1174826,4,Li6Mn3CoO10,C2
2879,0.034060252,"['Co', 'Li', 'O', 'P']",mp-705332,4,LiCoP2O7,P2_1/c
2880,0.034065276,"['Co', 'Li', 'O', 'P']",mp-705362,4,Li2Co(PO3)5,P2_1/m
2881,0.03408402,"['Al', 'Li', 'O', 'V']",mp-769644,4,LiAlVO4,Imma
2882,0.034097519,"['Li', 'Mn', 'O', 'P']",mp-540032,4,Li4Mn5(P3O11)2,P2_1/c
2883,0.034111662,"['Li', 'Mn', 'O', 'Ti']",mp-771056,4,Li7Ti5Mn12O32,P1
2884,0.034111991,"['Fe', 'Li', 'O', 'Si']",mp-1177998,4,Li2FeSiO4,P2_1
2885,0.034125294,"['Li', 'Mn', 'O', 'P']",mp-764416,4,Li4Mn2(PO4)3,P2_1/c
2886,0.034135478,"['B', 'Li', 'Mn', 'O']",mp-780850,4,Li3Mn4(BO3)4,P-1
2887,0.034136701,"['Cu', 'Li', 'Ni', 'O']",mp-775069,4,Li5Cu2Ni3O10,P-1
2888,0.034144092,"['Li', 'O', 'P', 'V']",mp-1177046,4,Li5V3P8O29,P1
2889,0.034146137,"['Li', 'O', 'P', 'V']",mp-1177088,4,Li5V3P8O29,P1
2890,0.034152916,"['Fe', 'Li', 'O', 'Si']",mp-761402,4,Li2Fe5(Si2O7)2,P-1
2891,0.034163253,"['Cr', 'Li', 'O', 'P']",mp-697757,4,LiCr2(PO4)3,Cc
2892,0.034168317,"['Co', 'Li', 'O', 'P']",mp-705336,4,Li2Co3(P2O7)2,P-1
2893,0.034168785,"['Li', 'Mn', 'O', 'Si']",mp-761381,4,Li2Mn5(Si2O7)2,P-1
2894,0.034176723,"['B', 'Fe', 'Li', 'O']",mp-764888,4,Li3Fe4(BO3)4,P1
2895,0.034182483,"['Li', 'Mn', 'O']",mp-1174351,3,Li4Mn3O7,C2/m
2896,0.034187459,"['Li', 'O', 'P', 'V']",mp-1177075,4,Li5V3P8O29,P1
2897,0.034193328,"['B', 'Li', 'O', 'Yb']",mp-555910,4,Li2Yb5B3O13,P2_1/m
2898,0.034204396,"['Li', 'O', 'P', 'V']",mp-766628,4,Li5V3P8O29,P1
2899,0.03421193,"['B', 'Li', 'Mn', 'O']",mp-850069,4,Li3Mn4(BO3)4,P1
2900,0.034252609,"['Li', 'Au', 'O']",mp-996961,3,LiAuO2,C2/c
2901,0.034271038,"['Li', 'Mn', 'O']",mp-1100479,3,Li9Mn7O16,P2/m
2902,0.034288533,"['Li', 'O', 'P', 'V']",mp-775381,4,Li5V3P8O29,P1
2903,0.034289586,"['Fe', 'Li', 'O']",mp-853186,3,Li35(FeO4)8,P1
2904,0.034304487,"['Li', 'O', 'P', 'V']",mp-765148,4,Li5V3P8O29,P-1
2905,0.034342123,"['Cr', 'Li', 'Ni', 'O']",mp-772253,4,Li3Cr(NiO2)4,C2/m
2906,0.0343441,"['Li', 'Mn', 'O']",mp-1100477,3,Li9Mn7O16,P2/m
2907,0.034381012,"['Co', 'Li', 'Mn', 'O']",mp-1175169,4,Li7Mn4CoO12,P-1
2908,0.034410446,"['Li', 'O', 'P', 'V']",mp-540461,4,LiV(PO3)4,C2/c
2909,0.034414515,"['Li', 'O', 'P', 'V']",mp-1177092,4,Li5V3P8O29,P1
2910,0.034415621,"['Fe', 'Li', 'O', 'Si']",mp-765915,4,LiFe(SiO3)2,P1
2911,0.03445187,"['Li', 'Ni', 'O', 'Ti']",mp-771465,4,Li4Ti5Ni3O16,Cm
2912,0.034453383,"['Li', 'Mn', 'O', 'P']",mp-771366,4,LiMn2(PO4)2,P-1
2913,0.03446527,"['Li', 'Ni', 'O', 'P']",mp-863906,4,LiNi4(PO4)3,P-1
2914,0.03448232,"['Li', 'O', 'P', 'V']",mp-1177065,4,Li5V3P8O29,P1
2915,0.034490723,"['Li', 'Fe', 'W', 'O']",mp-777225,4,Li4Fe(WO4)3,P1
2916,0.034492345,"['Li', 'O', 'P', 'V']",mp-1177080,4,Li5V3P8O29,P1
2917,0.034503259,"['B', 'Fe', 'Li', 'O']",mp-764504,4,Li3Fe4(BO3)4,Pc
2918,0.034510821,"['Li', 'Mn', 'O']",mp-770710,3,Li3Mn7O16,R3m
2919,0.034519975,"['Li', 'Co', 'O']",mp-764999,3,Li2(CoO2)3,C2/m
2920,0.03452002,"['Li', 'Mn', 'Ni', 'O']",mp-763752,4,Li3Mn2(NiO4)2,P-1
2921,0.03452885,"['Li', 'O', 'P', 'V']",mp-851057,4,Li5V3P8O29,P1
2922,0.0345359,"['Li', 'O', 'P', 'V']",mp-1177062,4,Li5V3P8O29,P1
2923,0.034543037,"['Cr', 'Li', 'O']",mp-769775,3,Li2Cr2O7,P-1
2924,0.034549129,"['Fe', 'Li', 'O', 'P']",mp-705431,4,Li6Fe5(P2O7)4,P-1
2925,0.03458031,"['Li', 'Mn', 'O']",mp-1100533,3,Li9Mn7O16,P-1
2926,0.03459995,"['Li', 'O', 'P', 'Sn']",mp-26725,4,LiSnPO4,P31c
2927,0.034607295,"['Li', 'Ni', 'O']",mp-762391,3,Li2(NiO2)3,C2/m
2928,0.034607838,"['B', 'Fe', 'Li', 'O']",mp-774231,4,LiFeB2O5,C2/c
2929,0.034620452,"['Co', 'Cr', 'Li', 'O']",mp-1177445,4,Li4Cr3CoO8,R-3m
2930,0.034621252,"['Li', 'Ni', 'O', 'Ti']",mp-764019,4,Li2TiNiO4,Imma
2931,0.034622671,"['Li', 'Mn', 'O']",mp-1175321,3,Li7Mn5O12,P-1
2932,0.034631748,"['Li', 'O', 'V', 'Zn']",mp-768023,4,LiV3Zn2O8,R-3m
2933,0.034643904,"['Fe', 'Li', 'O', 'P']",mp-540431,4,Li2Fe5(PO4)4,P-1
2934,0.034646576,"['B', 'Li', 'Mn', 'O']",mp-778832,4,Li3Mn4(BO3)4,P1
2935,0.034649055,"['Li', 'O', 'Ti']",mp-758089,3,Li2Ti3O6,Fddd
2936,0.034649331,"['Li', 'Mn', 'O']",mp-1176651,3,LiMn6O12,P1
2937,0.0346619,"['Li', 'Nb', 'O', 'W']",mp-619802,4,LiNbWO6,P-42_1m
2938,0.034683279,"['Li', 'O', 'P', 'V']",mp-1177077,4,Li5V3P8O29,P1
2939,0.034685096,"['Co', 'Li', 'O']",mp-769847,3,Li(CoO2)2,Pmmn
2940,0.034705528,"['Li', 'O', 'P', 'V']",mp-1177084,4,Li5V3P8O29,P1
2941,0.034741921,"['Li', 'Nb', 'O']",mp-772147,3,LiNb7O12,P2_1/c
2942,0.034751376,"['Li', 'Mn', 'O']",mp-768056,3,LiMn10O20,I4_1/a
2943,0.0347634,"['Li', 'O', 'P', 'V']",mp-1177073,4,Li5V3P8O29,P1
2944,0.034773969,"['Li', 'O', 'Sn', 'V']",mp-868646,4,Li4V5Sn3O16,P1
2945,0.03478072,"['Fe', 'Li', 'O', 'P']",mp-705381,4,LiFe3P4O15,Pc
2946,0.034801641,"['B', 'Li', 'Mn', 'O']",mp-778856,4,Li3Mn4(BO3)4,P1
2947,0.034820723,"['Li', 'Mn', 'O', 'Sn']",mp-771099,4,Li3Mn4SnO8,C2/m
2948,0.034825787,"['Co', 'Li', 'Mn', 'O']",mp-775027,4,Li2Mn3CoO8,R3m
2949,0.034831578,"['Fe', 'Li', 'O', 'V']",mp-773233,4,Li5V2Fe3O10,P-1
2950,0.034840166,"['Li', 'O', 'P', 'W']",mp-763455,4,LiP4WO12,P2_1
2951,0.034855612,"['Li', 'Mn', 'O', 'P']",mp-850475,4,Li3Mn2(P2O7)2,P-1
2952,0.034861012,"['Co', 'Fe', 'Li', 'O']",mp-763473,4,Li2FeCo9O20,P-1
2953,0.034866115,"['Li', 'Ni', 'O']",mp-1045516,3,Li(NiO2)2,P2/m
2954,0.034873047,"['Li', 'Mo', 'O']",mp-636380,3,Li(MoO2)2,Imma
2955,0.03489154,"['Cr', 'Li', 'O']",mp-766115,3,LiCrO2,P6_3mc
2956,0.034892915,"['Cr', 'Fe', 'Li', 'O']",mp-765750,4,Li5Cr2Fe3O10,P-1
2957,0.034893577,"['Li', 'O', 'P', 'V']",mp-774079,4,Li5V3P8O29,P1
2958,0.034929505,"['B', 'Li', 'Ni', 'O']",mp-761322,4,LiNiBO3,P-1
2959,0.034940894,"['Li', 'O', 'P', 'V']",mp-765083,4,Li5V3P8O29,P1
2960,0.034945798,"['Li', 'O', 'P', 'V']",mp-1177067,4,Li5V3P8O29,P1
2961,0.03498895,"['Fe', 'Li', 'O', 'P']",mp-540216,4,LiFeP2O7,P1
2962,0.035014452,"['Li', 'O', 'P', 'V']",mp-775385,4,Li5V3P8O29,P1
2963,0.03503905,"['Li', 'O', 'P', 'V']",mp-1177055,4,Li5V3P8O29,P1
2964,0.03504545,"['Li', 'Mn', 'O', 'P']",mp-31938,4,Li3Mn2(PO4)3,R-3
2965,0.035047508,"['Co', 'Li', 'Mn', 'O']",mp-1175153,4,Li7Mn4CoO12,P-1
2966,0.035050258,"['Co', 'Li', 'Mn', 'O']",mp-861490,4,Li5Mn2Co3O10,P1
2967,0.035054936,"['Li', 'O', 'P', 'Sn']",mp-26701,4,Li3Sn2(PO4)3,P2_1/c
2968,0.035058478,"['Li', 'O', 'P', 'V']",mp-1177181,4,Li5V3P8O29,P1
2969,0.035067805,"['Li', 'Nb', 'O', 'Zn']",mp-756793,4,Li2Nb4ZnO12,P1
2970,0.035080738,"['Li', 'O', 'P', 'V']",mp-765213,4,Li5V3P8O29,P1
2971,0.035086248,"['Li', 'O', 'Ti']",mp-757527,3,LiTi6O12,Pc
2972,0.035087052,"['Co', 'Li', 'O', 'Ti']",mp-1177858,4,Li2TiCoO4,P2/m
2973,0.03508778,"['Li', 'Mn', 'O']",mp-1174359,3,Li4Mn3O7,C2/m
2974,0.035094721,"['Li', 'O', 'P', 'V']",mp-774118,4,Li5V3P8O29,P1
2975,0.035097609,"['B', 'Li', 'O', 'V']",mp-772588,4,Li2V5B3O13,P2_1/m
2976,0.035100748,"['Li', 'Mn', 'O']",mp-1100485,3,Li9Mn7O16,C2/m
2977,0.035136413,"['Li', 'O', 'P', 'V']",mp-1177053,4,Li5V3P8O29,P1
2978,0.035142489,"['Fe', 'Li', 'O', 'Si']",mp-861172,4,LiFe(SiO3)2,P-1
2979,0.035147578,"['Li', 'O', 'P', 'Sb']",mp-673059,4,LiSbP2O7,P2_1/c
2980,0.035173522,"['Fe', 'Li', 'O', 'Si']",mp-761459,4,LiFeSi3O8,P-1
2981,0.035185853,"['Li', 'Ce', 'H', 'O']",mp-24149,4,LiCe2HO3,Immm
2982,0.035189799,"['Li', 'Mn', 'O']",mp-1100512,3,Li9Mn7O16,P-1
2983,0.035190053,"['Li', 'O', 'Ti']",mp-765985,3,Li5Ti12O24,Pm
2984,0.035195034,"['Co', 'Li', 'Mn', 'O']",mp-1175230,4,Li7Mn4CoO12,P1
2985,0.035198789,"['Co', 'Li', 'Mn', 'O']",mp-769908,4,Li2Mn3CoO8,P6_3mc
2986,0.03525826,"['Li', 'Cu', 'O']",mp-25385,3,Li(CuO2)2,Fd-3m
2987,0.035278808,"['Fe', 'Li', 'O', 'Si']",mp-764344,4,Li2FeSiO4,P2_1
2988,0.03528946,"['Li', 'Ti', 'V', 'O']",mp-769874,4,Li2TiVO4,I-4m2
2989,0.035294014,"['Li', 'Mn', 'O']",mp-1100511,3,Li9Mn7O16,P-1
2990,0.035300936,"['Li', 'O', 'Rh', 'Ru']",mp-1222456,4,LiRuRhO4,Imma
2991,0.035311006,"['Al', 'Li', 'O', 'Si']",mp-1222553,4,LiAlSiO4,P2
2992,0.035320077,"['Fe', 'Li', 'O', 'P']",mp-1177735,4,Li3Fe2(P2O7)2,P1