,e_above_hull,elements,material_id,nelements,pretty_formula,spacegroup.symbol
673,0.002234852,"['Cr', 'Li', 'Mn', 'O']",mp-770492,4,Li24Mn11CrO36,P1
674,0.002247771,"['Cr', 'Li', 'Mn', 'O']",mp-770668,4,Li24Mn11CrO36,C2
675,0.002250981,"['Ce', 'Li', 'O']",mp-8611,3,Li8CeO6,R-3
676,0.002286011,"['Li', 'Mo', 'O', 'Tl']",mp-620862,4,LiTl3(MoO4)2,P6_3mc
677,0.002301685,"['In', 'Li', 'O']",mp-1222354,3,LiInO2,I4_1md
678,0.00230282,"['Li', 'O', 'Sr', 'Ta']",mp-6259,4,SrLi2Ta2O7,I4/mmm
679,0.002307129,"['Cr', 'Li', 'Mn', 'O']",mp-770669,4,Li24Mn11CrO36,C2
680,0.002318124,"['Fe', 'Li', 'O', 'Sb']",mp-776833,4,Li2Fe3SbO8,P4_332
681,0.002376764,"['Li', 'Mn', 'O']",mp-565348,3,LiMnO2,I4_1/amd
682,0.002389297,"['Li', 'O', 'P', 'V']",mp-850900,4,Li3V2(PO4)3,R-3
683,0.002396261,"['B', 'Li', 'O', 'Sr']",mp-1020725,4,Sr4Li2B12O23,P2_1/c
684,0.002404954,"['Ge', 'Li', 'O', 'P']",mp-1021510,4,LiGe2(PO4)3,R-3
685,0.002417388,"['Li', 'Mo', 'O', 'P']",mp-704540,4,LiMo2(PO4)3,Cc
686,0.002461626,"['Co', 'Li', 'Mn', 'O']",mp-1177935,4,Li2Mn3CoO8,P4_332
687,0.002466375,"['Fe', 'Li', 'O', 'Si']",mp-510708,4,LiFe(SiO3)2,C2/c
688,0.002486745,"['B', 'Ca', 'Li', 'O']",mp-966801,4,LiCaBO3,Ibca
689,0.002507233,"['Co', 'Li', 'O', 'P']",mp-540489,4,LiCoPO4,Pna2_1
690,0.002507622,"['Cu', 'Li', 'O', 'P']",mp-558431,4,LiCu(PO3)3,P-1
691,0.00252444,"['Cr', 'Li', 'Mn', 'O']",mp-770619,4,Li24Mn11CrO36,C2
692,0.002533535,"['Li', 'O', 'Rb']",mp-28545,3,RbLiO,Pnma
693,0.002543465,"['In', 'Li', 'O', 'P']",mp-14488,4,Li3In2(PO4)3,P2_1/c
694,0.002587395,"['Fe', 'Li', 'O', 'Si']",mp-761416,4,LiFe(SiO3)2,Pbca
695,0.002595698,"['Cr', 'Li', 'Mn', 'O']",mp-770622,4,Li24Mn11CrO36,C2
696,0.002610024,"['Li', 'O', 'P', 'Ti']",mp-759377,4,LiTi2(PO4)3,P2_1/c
697,0.002616068,"['Co', 'K', 'Li', 'O']",mp-764636,4,K2Li2CoO4,P2_1/c
698,0.002625133,"['Co', 'Fe', 'Li', 'O']",mp-767942,4,Li3Fe3CoO8,R-3m
699,0.002633136,"['Er', 'Li', 'O']",mp-10971,3,LiErO2,I4_1/amd
700,0.002634664,"['Li', 'Mn', 'O']",mp-705804,3,LiMnO2,Cm
701,0.002635108,"['Co', 'Li', 'Ni', 'O']",mp-1178042,4,Li2CoNi3O8,P4_32_12
702,0.00265611,"['Al', 'Li', 'O', 'P']",mp-559987,4,LiAl(PO3)4,Pbcn
703,0.002658546,"['Ge', 'Li', 'Mg', 'O']",mp-1222820,4,Li2MgGeO4,Pna2_1
704,0.002672969,"['Li', 'O', 'P', 'Sn']",mp-759384,4,LiSn2(PO4)3,P-1
705,0.002675469,"['Li', 'Ni', 'O']",mp-691145,3,Li2NiO3,C2/c
706,0.002720409,"['Li', 'O', 'P', 'Ti']",mp-1197890,4,Li2Ti2(PO4)3,Pbcn
707,0.002734348,"['Li', 'O', 'Pb', 'Si']",mp-553950,4,Li10Si2PbO10,C2/m
708,0.002746108,"['Cr', 'Li', 'Mg', 'O']",mp-1040079,4,LiMg30CrO32,P4/mmm
709,0.002759914,"['Hf', 'Li', 'O']",mp-752922,3,Li8HfO6,R-3
710,0.002803838,"['B', 'Gd', 'Li', 'O']",mp-16699,4,Li6Gd(BO3)3,P2_1/c
711,0.002812648,"['Li', 'O', 'P', 'Sn']",mp-27094,4,LiSn2(PO4)3,P2_1/c
712,0.002830776,"['Li', 'Mo', 'Ni', 'O']",mp-1211383,4,Li2Ni2(MoO4)3,Pnma
713,0.002845811,"['Dy', 'Li', 'O', 'P']",mp-6413,4,LiDy(PO3)4,C2/c
714,0.002871396,"['Ir', 'Li', 'O']",mp-1190434,3,Li2IrO3,Fddd
715,0.002923788,"['Cr', 'Li', 'O', 'Ti']",mp-779361,4,Li24Ti11CrO36,P1
716,0.002928137,"['Li', 'O', 'P', 'V']",mp-761376,4,Li3V2(PO4)3,P2_1/c
717,0.002938034,"['Ge', 'Li', 'O', 'Ta']",mp-6478,4,LiTaGeO5,C2/c
718,0.002963232,"['Cr', 'Li', 'O', 'Ti']",mp-771759,4,Li2Ti3CrO8,R-3m
719,0.002976006,"['Ho', 'Li', 'O', 'P']",mp-555366,4,LiHo(PO3)4,C2/c
720,0.002996098,"['Li', 'O', 'Ti']",mp-768114,3,Li6Ti9O20,C2/m
721,0.00300006,"['Li', 'O', 'V']",mp-540700,3,LiV3O8,P2_1/m
722,0.003023912,"['Cr', 'Li', 'O', 'Ti']",mp-778889,4,Li24Ti11CrO36,C2
723,0.00303585,"['Cr', 'Li', 'O', 'Ti']",mp-779092,4,Li24Ti11CrO36,C2
724,0.003062749,"['Co', 'Li', 'O', 'P']",mp-1101531,4,Li9Co3P8O29,Cc
725,0.003086171,"['Cr', 'Li', 'O']",mp-699330,3,LiCr3O8,Pnnm
726,0.003133219,"['Li', 'Nb', 'O', 'V']",mp-777682,4,Li2NbV3O8,P6_3mc
727,0.003153322,"['Li', 'Mg', 'Mn', 'O']",mp-1038038,4,LiMg30MnO32,P4/mmm
728,0.003156328,"['Co', 'K', 'Li', 'O']",mp-761731,4,K2Li2CoO4,P1
729,0.00319177,"['Li', 'Mn', 'O']",mp-1199729,3,LiMn2O4,Fddd
730,0.003207886,"['Li', 'O', 'V', 'W']",mp-774304,4,Li2V3WO8,P4_332
731,0.003210939,"['Li', 'Mn', 'O']",mp-776365,3,Li9Mn21O40,P1
732,0.00321189,"['Cr', 'Li', 'O', 'Ti']",mp-779227,4,Li24Ti11CrO36,C2
733,0.003213554,"['Li', 'O', 'Ru']",mp-757535,3,Li35(RuO4)12,C2
734,0.00324005,"['Li', 'Nb', 'O', 'Zn']",mp-6146,4,LiNbZnO4,P4_122
735,0.003243312,"['Li', 'Nb', 'O', 'Zn']",mp-18037,4,LiNbZnO4,P4_322
736,0.003243709,"['B', 'La', 'Li', 'O']",mp-1211607,4,Li3La2(BO3)3,P2_1/c
737,0.003250795,"['Co', 'Li', 'O', 'P']",mp-761677,4,LiCoPO4,Pc
738,0.003310173,"['Cr', 'Fe', 'Li', 'O']",mp-765743,4,Li2CrFeO4,Imma
739,0.003312129,"['Fe', 'Li', 'O', 'P']",mp-850262,4,Li2FeP2O7,P2_1/c
740,0.003346341,"['B', 'Cs', 'Li', 'O']",mp-1019716,4,CsLi4(BO2)5,P2_1/c
741,0.003347276,"['Li', 'Mn', 'Ni', 'O']",mp-773961,4,Li8Mn15NiO32,R32
742,0.003356369,"['Li', 'Mo', 'O', 'P']",mp-32102,4,LiMo2P2O11,P2_1/m
743,0.003383799,"['Al', 'Li', 'O']",mp-7535,3,Li5AlO4,Pmmn
744,0.003384828,"['Li', 'O', 'Sb']",mp-755703,3,LiSbO2,C2/c
745,0.003406102,"['K', 'Li', 'O', 'Ti']",mp-755707,4,K3LiTi7O16,P1
746,0.003411428,"['Ge', 'Li', 'O']",mp-27968,3,Li6Ge2O7,P2_1/c
747,0.003414391,"['Li', 'O', 'P', 'Sn']",mp-27122,4,LiSn2(PO4)3,P-1
748,0.003469679,"['Cr', 'Li', 'O', 'Ti']",mp-779775,4,Li24Ti11CrO36,C2
749,0.003484719,"['Fe', 'Li', 'O', 'Sb']",mp-771926,4,LiFeSbO4,P4_322
750,0.003517795,"['Li', 'O', 'P', 'V']",mp-997544,4,Li2V2(PO4)3,P1
751,0.003549805,"['Li', 'Mn', 'Ni', 'O']",mp-769460,4,Li9Mn12Ni3O32,C2
752,0.003560744,"['Li', 'Mn', 'O', 'P']",mp-504176,4,Li9Mn3P8O29,C2/c
753,0.003561446,"['Co', 'Li', 'O', 'Si']",mp-767128,4,Li2CoSiO4,Pmn2_1
754,0.003562842,"['La', 'Li', 'O', 'Sb']",mp-6674,4,LiLa2SbO6,P2_1/c
755,0.003575957,"['Li', 'Ni', 'O']",mp-773266,3,Li7Ni5O12,C2
756,0.003622138,"['Co', 'Li', 'Mn', 'O']",mp-761957,4,Li2Mn3CoO8,P2_13
757,0.003683512,"['Cr', 'Li', 'Mn', 'O']",mp-775679,4,Li2Mn3CrO8,P4_32_12
758,0.003705316,"['As', 'Li', 'O']",mp-1222598,3,Li3AsO4,Pnma
759,0.003749625,"['Co', 'Fe', 'Li', 'O']",mp-761710,4,LiFeCoO4,Imma
760,0.003772623,"['Co', 'Li', 'Ni', 'O']",mp-1178037,4,Li2CoNi3O8,P1
761,0.003772671,"['As', 'H', 'Li', 'O']",mp-23894,4,LiAs(HO2)2,Pna2_1
762,0.003801387,"['Fe', 'Li', 'Mn', 'O']",mp-779755,4,Li5Mn7Fe3O20,P1
763,0.003827036,"['Co', 'Fe', 'Li', 'O']",mp-770651,4,Li10Fe9CoO20,P2/m
764,0.003858521,"['Ca', 'Li', 'O', 'P']",mp-16804,4,LiCaPO4,P31c
765,0.003878051,"['Li', 'Ni', 'O']",mp-698842,3,Li19Ni23O42,P-1
766,0.003888891,"['Co', 'Ge', 'Li', 'O']",mp-769771,4,Li2CoGeO4,Pmn2_1
767,0.003907362,"['Fe', 'Li', 'Ni', 'O']",mp-765712,4,Li4FeNi3O8,P-1
768,0.003917342,"['Li', 'Mn', 'O', 'Sn']",mp-772578,4,Li2Mn3SnO8,Cmc2_1
769,0.00394804,"['Li', 'H', 'O']",mp-625998,3,LiHO,Aem2
770,0.003985011,"['Cr', 'Li', 'O', 'Ti']",mp-775616,4,Li2Ti3CrO8,P4_332
771,0.003986159,"['Co', 'Li', 'O', 'P']",mp-31585,4,LiCoPO4,P2_1/c
772,0.0040662,"['B', 'In', 'Li', 'O']",mp-556799,4,Li3In(BO3)2,P2_1/c
773,0.004080712,"['Li', 'O', 'Ti']",mp-772521,3,Li8TiO6,P6_3cm
774,0.004088352,"['Li', 'O', 'P', 'W']",mp-761393,4,LiP4WO13,P1
775,0.004114807,"['Li', 'Mn', 'Ni', 'O']",mp-773367,4,LiMnNiO4,Imma
776,0.004157811,"['Co', 'Li', 'O', 'Si']",mp-763309,4,Li2CoSiO4,Pnma
777,0.004162334,"['Li', 'O', 'P', 'Zn']",mp-17056,4,LiZnPO4,R3
778,0.004165134,"['Li', 'Mn', 'O']",mp-769450,3,Li9Mn15O32,P1
779,0.004234878,"['Li', 'Mn', 'O', 'P']",mp-585338,4,Li3Mn3(PO4)4,P1
780,0.004260507,"['Fe', 'Li', 'O', 'P']",mp-540112,4,LiFe(PO3)3,P2_12_12_1
781,0.004268307,"['Co', 'Li', 'O', 'Si']",mp-763304,4,Li2CoSiO4,Pna2_1
782,0.004269824,"['Li', 'Mn', 'O']",mp-1097058,3,LiMn2O4,P1
783,0.004276956,"['Cr', 'Li', 'O', 'W']",mp-761941,4,Li2Cr3WO8,P4_332
784,0.00430397,"['Co', 'Li', 'O', 'P']",mp-761812,4,LiCoPO4,Pca2_1
785,0.004326328,"['Li', 'O', 'P', 'V']",mp-762579,4,Li2V2(PO4)3,P-1
786,0.004351249,"['Li', 'O', 'P', 'V']",mp-997536,4,Li3V2(PO4)3,P2_12_12
787,0.004374898,"['Cr', 'Li', 'O', 'Si']",mp-761578,4,Li2Cr3(SiO3)4,Pnma
788,0.004397693,"['Li', 'O', 'P', 'V']",mp-853263,4,Li5V4(PO4)6,Pc
789,0.004421041,"['Co', 'Li', 'O', 'P']",mp-585361,4,Li9Co3P8O29,C2/c
790,0.004466564,"['Cr', 'Li', 'Mn', 'O']",mp-775496,4,Li3Mn5Cr3O16,Cm
791,0.004469587,"['Li', 'Mg', 'Ni', 'O']",mp-769522,4,Li13Mg(Ni6O13)2,P-1
792,0.004517087,"['Fe', 'Li', 'Ni', 'O']",mp-771052,4,Li10Fe3Ni7O20,P2/m
793,0.004560067,"['Co', 'Li', 'O', 'Si']",mp-764641,4,Li2CoSiO4,Pna2_1
794,0.004564118,"['Li', 'Mn', 'O']",mp-694851,3,LiMnO2,Pmm2
795,0.004597139,"['Li', 'Ni', 'O', 'P']",mp-764152,4,Li2NiP2O7,P2_1/c
796,0.004599068,"['Al', 'Li', 'O', 'Si']",mp-1202325,4,LiAl(Si2O5)2,Pc
797,0.004617752,"['Li', 'Ni', 'O']",mp-761369,3,Li13Ni15O28,P-1
798,0.004618125,"['Cr', 'Li', 'Mn', 'O']",mp-778798,4,Li32Mn13Cr3O48,P1
799,0.004635547,"['B', 'Li', 'Nd', 'O']",mp-15362,4,Li3Nd2(BO3)3,P2_1/c
800,0.0046391,"['Cr', 'Li', 'Mn', 'O']",mp-779189,4,Li32Mn13Cr3O48,P1
801,0.004647049,"['Cr', 'Li', 'O']",mp-780493,3,Li8CrO6,P6_3cm
802,0.004667688,"['Fe', 'Li', 'O', 'P']",mp-697764,4,LiFeP2O7,C2
803,0.004704849,"['Cr', 'Li', 'Mn', 'O']",mp-779206,4,Li32Mn13Cr3O48,P1
804,0.004765417,"['Cr', 'Li', 'Mn', 'O']",mp-779270,4,Li32Mn13Cr3O48,P1
805,0.004770081,"['Cr', 'Li', 'Mn', 'O']",mp-1177789,4,Li32Mn13Cr3O48,P1
806,0.004802381,"['Cr', 'Li', 'Mn', 'O']",mp-779198,4,Li32Mn13Cr3O48,P1
807,0.004848203,"['Li', 'O', 'Ti', 'V']",mp-775564,4,Li2TiV3O8,P2_12_12_1
808,0.004877665,"['Ga', 'Li', 'O']",mp-531523,3,LiGa5O8,Pmna
809,0.004880798,"['Fe', 'Li', 'O', 'P']",mp-1101516,4,LiFeP2O7,C2/c
810,0.004888436,"['Cr', 'Li', 'Mn', 'O']",mp-779803,4,Li32Mn13Cr3O48,P1
811,0.004890841,"['Cr', 'Li', 'Mn', 'O']",mp-1177747,4,Li32Mn13Cr3O48,P1
812,0.004919798,"['Li', 'O', 'P', 'Y']",mp-556861,4,LiY(PO3)4,C2/c
813,0.004926085,"['Cr', 'Li', 'O', 'P']",mp-775597,4,Li3Cr2(PO4)3,P2_1/c
814,0.004960176,"['Li', 'O', 'Si', 'V']",mp-19043,4,LiV(SiO3)2,C2/c
815,0.004972324,"['Li', 'O', 'W']",mp-18933,3,Li2WO4,I4_1/amd
816,0.005006052,"['Li', 'O', 'P', 'Yb']",mp-561390,4,LiYb(PO3)4,C2/c
817,0.005010193,"['Cr', 'Li', 'Mn', 'O']",mp-1177793,4,Li32Mn13Cr3O48,P1
818,0.005016905,"['Fe', 'Li', 'O', 'Si']",mp-764341,4,Li3FeSiO5,Pna2_1
819,0.005020417,"['Ca', 'Li', 'O', 'V']",mp-1223290,4,Li2CaV12O32,Cm
820,0.005056485,"['B', 'Fe', 'Li', 'O']",mp-1176701,4,LiFeBO3,P-1
821,0.005065198,"['K', 'Li', 'O', 'Ti']",mp-762240,4,K2Li2TiO4,P2_1/c
822,0.005076287,"['Cr', 'Li', 'Mn', 'O']",mp-779392,4,Li32Mn13Cr3O48,P1
823,0.005080952,"['H', 'Li', 'O', 'V']",mp-1201415,4,Li3V(H4O3)4,P1
824,0.005081474,"['Be', 'Li', 'O', 'Si']",mp-554159,4,Li2BeSiO4,C222_1
825,0.005106931,"['Li', 'O', 'P', 'Sn']",mp-26702,4,LiSn2(PO4)3,P2_1/c
826,0.005116303,"['Co', 'Li', 'Ni', 'O']",mp-769555,4,Li10Co3Ni7O20,P-1
827,0.005133026,"['Cr', 'Li', 'Mn', 'O']",mp-1177916,4,Li2MnCr3O8,P4_32_12
828,0.005218509,"['Cr', 'Li', 'O', 'V']",mp-769609,4,Li4VCr3O8,P-1
829,0.005225524,"['Cr', 'Li', 'O', 'P']",mp-540113,4,Li3Cr2(PO4)3,P2_1/c
830,0.005232613,"['B', 'Cs', 'Li', 'O']",mp-1019615,4,Cs3Li4(BO2)7,P3_121
831,0.005236445,"['Cr', 'Li', 'O', 'V']",mp-770041,4,Li3VCr2O6,C2/m
832,0.005264549,"['Co', 'Li', 'O', 'P']",mp-761736,4,LiCoPO4,Pca2_1
833,0.0052768,"['Li', 'O', 'P', 'Sn']",mp-27017,4,LiSnPO4,Pna2_1
834,0.005299013,"['Cr', 'Li', 'O', 'P']",mp-25507,4,LiCrPO4,Pnma
835,0.005317998,"['Li', 'O', 'P', 'Sn']",mp-562473,4,LiSn2(PO4)3,R-3c
836,0.005362236,"['Cr', 'Li', 'O', 'Si']",mp-510529,4,LiCr(SiO3)2,P2_1/c
837,0.005371976,"['Fe', 'Li', 'O', 'P']",mp-762641,4,LiFe(PO3)3,P2_12_12_1
838,0.005376516,"['Cr', 'Li', 'O', 'V']",mp-769593,4,Li4VCr3O8,P-1
839,0.005381219,"['Hg', 'Li', 'O', 'P']",mp-559070,4,Li2Hg(PO3)4,P2_1/c
840,0.005414916,"['Cr', 'Li', 'O', 'V']",mp-769605,4,Li4VCr3O8,P-1
841,0.005437545,"['Fe', 'Li', 'Mo', 'O']",mp-1223182,4,Li2Fe2(MoO4)3,Pc
842,0.00544297,"['Co', 'Li', 'O']",mp-1174196,3,Li7Co5O12,C2/m
843,0.005448148,"['Li', 'Ni', 'O']",mp-768091,3,Li4Ni7O11,P-1
844,0.005513058,"['Li', 'Mn', 'O']",mp-1004373,3,LiMnO2,Pnma
845,0.005515293,"['Li', 'Ni', 'O']",mp-771876,3,Li5NiO4,Pbca
846,0.005517524,"['Cd', 'Li', 'O', 'P']",mp-559715,4,Li2Cd(PO3)4,Pnma
847,0.005535237,"['Li', 'Mn', 'O', 'P']",mp-767230,4,LiMn2(PO4)2,P2_1
848,0.005611523,"['Li', 'Ni', 'O']",mp-769435,3,Li13Ni15O28,P-1
849,0.005640902,"['Cr', 'Li', 'O', 'V']",mp-774288,4,Li2V3CrO8,P2_1
850,0.005666751,"['Co', 'Li', 'Ni', 'O']",mp-765786,4,Li2CoNiO4,Imma
851,0.005679074,"['Li', 'O', 'Sc', 'Si']",mp-1180540,4,LiSc(SiO3)2,P2_1/c
852,0.005688472,"['B', 'Ba', 'Li', 'O']",mp-1183402,4,BaLi(B3O5)3,R3c
853,0.005740609,"['Cr', 'Li', 'O', 'V']",mp-769595,4,Li4VCr3O8,P-1
854,0.005760164,"['Ir', 'Li', 'O']",mp-8469,3,Li8IrO6,R-3
855,0.005766753,"['Li', 'O', 'P', 'Ti']",mp-773017,4,LiTi2(PO4)3,Pca2_1
856,0.005773421,"['Ge', 'Li', 'O', 'V']",mp-18809,4,Li2VGeO5,P4/nmm
857,0.005791125,"['As', 'Co', 'Li', 'O']",mp-24861,4,LiCoAsO4,Pnma
858,0.005799434,"['Li', 'O', 'P', 'Ti']",mp-26884,4,LiTi2(PO4)3,P-1
859,0.005827458,"['Cr', 'Li', 'O', 'Si']",mp-18727,4,LiCr(SiO3)2,C2/c
860,0.005856967,"['Cr', 'Fe', 'Li', 'O']",mp-771630,4,LiCr3(FeO4)2,R3m
861,0.005882568,"['Ca', 'Li', 'O', 'Si']",mp-556137,4,Li2Ca4Si4O13,P-1
862,0.005882987,"['Ca', 'Li', 'O', 'Ta']",mp-1190183,4,Li2CaTa2O7,Cmcm
863,0.005886222,"['Cr', 'Li', 'O']",mp-769794,3,Li2CrO3,C2/c
864,0.005902594,"['Co', 'Li', 'Ni', 'O']",mp-773251,4,Li5Co2Ni3O10,P-1
865,0.005930093,"['Fe', 'Li', 'O', 'Si']",mp-763645,4,Li2FeSiO4,Pnma
866,0.005944196,"['Li', 'Ni', 'O']",mp-850062,3,LiNiO2,P-1
867,0.005949145,"['Al', 'B', 'Li', 'O']",mp-6097,4,Li3Al(BO3)2,P-1
868,0.005952197,"['Li', 'O', 'Sm', 'W']",mp-1211000,4,LiSm(WO4)2,P2/c
869,0.0059669,"['Li', 'Ni', 'O']",mp-767950,3,Li4Ni5O9,P-1
870,0.006007598,"['Fe', 'Li', 'O', 'Rh']",mp-1222530,4,LiFe2Rh3O8,R3m
871,0.006021659,"['Cr', 'Li', 'O', 'Sb']",mp-1178030,4,Li2Cr3SbO8,R-3m
872,0.00606421,"['Fe', 'Li', 'Nb', 'O']",mp-772339,4,LiNbFeO4,P4_322
873,0.00608797,"['Li', 'Ni', 'O']",mp-866271,3,LiNiO2,C2/m
874,0.006118709,"['Li', 'Mn', 'O', 'P']",mp-540135,4,Li2Mn(PO3)4,Pnma
875,0.006131719,"['Al', 'Li', 'O', 'Si']",mp-14399,4,LiAlSiO4,P6_222
876,0.006132658,"['Li', 'Al', 'Si', 'O']",mp-6326,4,LiAlSiO4,P6_422
877,0.006167659,"['B', 'Fe', 'Li', 'O']",mp-769825,4,LiFeBO3,P-6
878,0.006259985,"['Fe', 'Li', 'O']",mp-1177945,3,Li2FeO3,C2/m
879,0.006266376,"['Fe', 'Li', 'O', 'P']",mp-504186,4,Li3Fe2(PO4)3,P2_1/c
880,0.006275157,"['Ge', 'Li', 'O']",mp-1020012,3,Li2Ge4O9,Pca2_1
881,0.006311293,"['Cr', 'Li', 'O', 'V']",mp-776136,4,Li2VCrO4,C2/m
882,0.006319255,"['B', 'Li', 'O', 'Yb']",mp-1211550,4,Li3Yb2(BO3)3,P2_1/c
883,0.006322452,"['Cr', 'Li', 'O', 'Ti']",mp-1177824,4,Li32Ti13Cr3O48,P1
884,0.006348425,"['Li', 'O', 'Ti', 'V']",mp-764774,4,LiTi2V3O12,P2_1/c
885,0.006378915,"['Li', 'Mn', 'O']",mp-1185524,3,Li95Mn16O64,Pmm2
886,0.006383432,"['Li', 'O', 'P', 'W']",mp-763531,4,LiP3(WO6)2,C2
887,0.006387937,"['Cr', 'Li', 'O', 'V']",mp-769608,4,Li4VCr3O8,P-1
888,0.006416659,"['Cr', 'Li', 'O', 'Si']",mp-761561,4,LiCr(SiO3)2,Pbca
889,0.006463297,"['Li', 'Mn', 'O', 'Rb']",mp-1101431,4,RbLiMn3O4,Cm
890,0.006465163,"['Fe', 'Li', 'Ni', 'O']",mp-769856,4,Li4Fe3NiO8,R-3m
891,0.006491228,"['Li', 'Mn', 'Ni', 'O']",mp-1176793,4,Li9Mn12Ni3O32,R32
892,0.006498208,"['Cr', 'Li', 'O', 'V']",mp-769611,4,Li4V3CrO8,P-1
893,0.006499107,"['Li', 'O', 'Ti']",mp-774263,3,Li13Ti28O56,R3
894,0.006510249,"['Cr', 'Li', 'O', 'Ti']",mp-777709,4,Li32Ti13Cr3O48,P1
895,0.006526855,"['Li', 'Mn', 'O']",mp-1003549,3,LiMn16O32,Pm
896,0.006561348,"['Li', 'O', 'Si']",mp-3552,3,Li2Si2O5,Pbcn
897,0.006563368,"['Li', 'Mn', 'O', 'P']",mp-585432,4,LiMnPO4,Cc
898,0.006581745,"['Cr', 'Li', 'O', 'Ti']",mp-777982,4,Li32Ti13Cr3O48,P1
899,0.006596654,"['Cr', 'Li', 'O', 'V']",mp-769614,4,Li4V3CrO8,P-1
900,0.006602782,"['Cr', 'Li', 'O', 'Ti']",mp-1177811,4,Li32Ti13Cr3O48,P1
901,0.006616595,"['Li', 'Mn', 'O']",mp-706714,3,Li9Mn15O32,P1
902,0.006621028,"['Cr', 'Li', 'O', 'V']",mp-769617,4,Li2VCrO4,P-1
903,0.006630016,"['Li', 'Mn', 'O', 'P']",mp-540121,4,LiMn6PO12,I4_1/acd
904,0.006649524,"['La', 'Li', 'O', 'Zr']",mp-942733,4,Li7La3Zr2O12,I4_1/acd
905,0.006676165,"['Li', 'O', 'Ti']",mp-772030,3,LiTiO2,Imma
906,0.006688568,"['Fe', 'Li', 'Ni', 'O']",mp-769545,4,Li10FeNi9O20,P-1
907,0.006691039,"['Li', 'Mn', 'O', 'P']",mp-540108,4,LiMnPO4,Cc
908,0.006693864,"['Cr', 'Li', 'Mn', 'O']",mp-770529,4,Li8Mn15CrO32,P1
909,0.006712341,"['Li', 'Mn', 'O', 'Si']",mp-849394,4,Li2MnSiO4,Pc
910,0.006732192,"['Li', 'O', 'Ti']",mp-774528,3,Li11Ti24O48,Cm
911,0.00676031,"['Cr', 'Li', 'O', 'V']",mp-769615,4,Li4V3CrO8,P-1
912,0.006760407,"['Li', 'O', 'P', 'V']",mp-761338,4,LiVPO4,Pbcn
913,0.006782435,"['H', 'Li', 'O', 'Sn']",mp-703343,4,Li2Sn(H5O4)2,P2_1/c
914,0.006784727,"['Li', 'O', 'P', 'W']",mp-763561,4,Li2P2WO8,P2_1/c
915,0.006787953,"['Co', 'Li', 'O', 'P']",mp-31541,4,LiCoPO4,R3
916,0.006797198,"['Cr', 'Li', 'O', 'V']",mp-769635,4,Li2VCrO4,P-1
917,0.006804392,"['Li', 'Mn', 'O', 'Sn']",mp-773180,4,Li4Mn3Sn5O16,Cm
918,0.006818985,"['Fe', 'Li', 'O', 'P']",mp-585433,4,LiFePO4,Cc
919,0.006835915,"['Li', 'O', 'P', 'Pb']",mp-559627,4,LiP3PbO9,P-1
920,0.006836609,"['Cr', 'H', 'Li', 'O']",mp-743649,4,Li2Cr2H4O9,C2/c
921,0.006839326,"['K', 'Li', 'O', 'P']",mp-559300,4,KLi(PO3)2,P2_1/c
922,0.006858308,"['Li', 'Nb', 'O']",mp-675069,3,LiNbO3,P1
923,0.006862793,"['Co', 'Li', 'Ni', 'O']",mp-774300,4,Li3CoNi3O8,P-1
924,0.006894677,"['Co', 'Li', 'O', 'P']",mp-761727,4,LiCoPO4,Pna2_1
925,0.006912452,"['Cr', 'Li', 'O', 'V']",mp-775825,4,Li2VCrO4,P2/m
926,0.00692802,"['Cr', 'Li', 'O', 'Ti']",mp-777496,4,Li32Ti13Cr3O48,P1
927,0.006928183,"['Li', 'Mn', 'O', 'P']",mp-762698,4,LiMn(PO3)3,P2_12_12_1
928,0.006937294,"['Al', 'Cr', 'Li', 'O']",mp-769980,4,Li4AlCr3O8,P-1
929,0.006961223,"['Fe', 'Li', 'O', 'P']",mp-779056,4,Li2FeP2O7,P2_1
930,0.006962779,"['Fe', 'Li', 'O', 'P']",mp-504189,4,Li3Fe3(PO4)4,P1
931,0.006990347,"['Li', 'O', 'Ti', 'V']",mp-1177856,4,Li2TiV3O8,P4_32_12
932,0.006998328,"['Li', 'Mn', 'O', 'V']",mp-775327,4,Li2MnV3O8,P2_13
933,0.007009157,"['B', 'Li', 'O']",mp-14232,3,LiBO2,I-42d
934,0.007009921,"['Li', 'O', 'P', 'Sb']",mp-776510,4,Li3Sb3P8O29,C2/c
935,0.007020361,"['Li', 'O', 'P', 'V']",mp-32409,4,LiVPO5,P-1
936,0.007024739,"['Al', 'Cr', 'Li', 'O']",mp-770316,4,Li4AlCr3O8,P2/m
937,0.007025112,"['Cr', 'Li', 'O', 'V']",mp-769628,4,Li4V3CrO8,P-1
938,0.007051992,"['Al', 'Cr', 'Li', 'O']",mp-770091,4,Li4AlCr3O8,P-1
939,0.007064161,"['Li', 'Ni', 'O']",mp-762213,3,Li3Ni5O8,C2/m
940,0.00707678,"['Cr', 'Li', 'O', 'Ti']",mp-1177737,4,Li32Ti13Cr3O48,P1
941,0.007077488,"['Ga', 'Li', 'Mg', 'O']",mp-1040051,4,LiMg30GaO32,P4/mmm
942,0.007083589,"['Cr', 'Li', 'O', 'Ti']",mp-777983,4,Li32Ti13Cr3O48,P1
943,0.007090153,"['Li', 'O', 'W']",mp-1222771,3,Li3(WO3)8,C2/m
944,0.007093921,"['Li', 'Mn', 'Ni', 'O']",mp-764083,4,Li8MnNi7O16,P-1
945,0.007109378,"['Li', 'Ni', 'O']",mp-1172967,3,Li(NiO2)2,P-1
946,0.007149378,"['Cr', 'Li', 'O', 'P']",mp-540129,4,Li3Cr2(PO4)3,P2_1/c
947,0.007161021,"['Li', 'Fe', 'P', 'O']",mp-540098,4,Li2FeP2O7,C2/c
948,0.007172116,"['Cr', 'Li', 'Mn', 'O']",mp-774951,4,Li2MnCr3O8,C222_1
949,0.007215274,"['Al', 'Li', 'Mg', 'O']",mp-1038204,4,LiMg30AlO32,P4/mmm
950,0.00723794,"['Li', 'O', 'P', 'V']",mp-643154,4,Li3V2(PO4)3,P2_1/c
951,0.007243257,"['Cr', 'Li', 'Mn', 'O']",mp-773293,4,Li2MnCrO4,C2/c
952,0.007270884,"['Co', 'Li', 'Ni', 'O']",mp-765538,4,Li3Co2NiO6,C2/m
953,0.007282051,"['Al', 'Cr', 'Li', 'O']",mp-770311,4,Li4AlCr3O8,P-1
954,0.007286053,"['Co', 'Li', 'Ni', 'O']",mp-769860,4,Li2Co3NiO8,P6_3mc
955,0.007290938,"['Al', 'Cr', 'Li', 'O']",mp-770051,4,Li4AlCr3O8,C2/m
956,0.007295208,"['Li', 'B', 'O']",mp-3660,3,LiB3O5,Pna2_1
957,0.007360226,"['Fe', 'Ge', 'Li', 'O']",mp-1188169,4,LiFe(GeO3)2,C2/c
958,0.007384633,"['Al', 'Cr', 'Li', 'O']",mp-771377,4,Li4AlCr3O8,P-1
959,0.007430146,"['Al', 'Cr', 'Li', 'O']",mp-770240,4,Li4AlCr3O8,P-1
960,0.007435686,"['Co', 'Li', 'Ni', 'O']",mp-771783,4,Li3Co(NiO3)2,C2/m
961,0.007440524,"['Li', 'Mg', 'Mn', 'O']",mp-1038037,4,LiMg30MnO32,P4/mmm
962,0.007463914,"['Co', 'Li', 'O']",mp-1175469,3,Li9Co7O16,P-1
963,0.0074651,"['Li', 'Lu', 'O']",mp-1176675,3,LiLuO2,P2_1/c
964,0.007487969,"['Cr', 'Li', 'O', 'V']",mp-768055,4,Li2VCrO4,P2/c