,e_above_hull,elements,material_id,nelements,pretty_formula,spacegroup.symbol
4153,0.048315049,"['Li', 'O', 'V']",mp-768084,3,Li8V11O22,P-1
4154,0.048318412,"['Cu', 'Li', 'O', 'P']",mp-27064,4,LiCuPO4,Pc
4155,0.048319137,"['Li', 'Mn', 'O', 'Si']",mp-767443,4,Li2Mn5Si5O16,P1
4156,0.048342504,"['Li', 'O', 'P', 'V']",mp-762967,4,Li4V3P8O29,C2/c
4157,0.048347703,"['B', 'Li', 'Ni', 'O']",mp-770876,4,Li3Ni(BO3)2,P-1
4158,0.048353636,"['Li', 'O', 'P', 'V']",mp-763272,4,Li4V3P8O29,P1
4159,0.048368346,"['Co', 'Li', 'O', 'P']",mp-1176784,4,LiCo2(PO4)2,Pc
4160,0.048381891,"['Fe', 'Li', 'O', 'Si']",mp-762837,4,LiFeSiO4,P6_422
4161,0.048385453,"['Li', 'Ni', 'O', 'P']",mp-766747,4,Li6Ni9(PO4)8,P-1
4162,0.048394708,"['B', 'Fe', 'Li', 'O']",mp-764643,4,Li5Fe8(BO3)8,P1
4163,0.048414945,"['Li', 'O', 'P', 'V']",mp-1177208,4,Li4V3P8O29,P1
4164,0.048421675,"['Li', 'Ni', 'O', 'P']",mp-765143,4,Li2NiP2O7,C2/c
4165,0.048438206,"['Li', 'O', 'P', 'W']",mp-763606,4,Li3P3(WO6)2,P2_1/c
4166,0.048441328,"['Li', 'O', 'P', 'V']",mp-863877,4,Li4V3P8O29,P1
4167,0.048461935,"['Li', 'Mn', 'O', 'P']",mp-762864,4,Li3Mn2(PO4)3,P2/c
4168,0.048468045,"['Li', 'O', 'P', 'Sb']",mp-673126,4,LiSb(PO3)4,P2_1
4169,0.04848072,"['Li', 'O', 'P', 'V']",mp-1177526,4,Li3V3P8O29,P1
4170,0.048482837,"['Fe', 'Li', 'Mn', 'O']",mp-770757,4,Li2MnFe3O8,P6_3mc
4171,0.048484868,"['Co', 'Fe', 'Li', 'O']",mp-769566,4,Li5Fe2Co3O10,Pm
4172,0.048489052,"['Li', 'O', 'P', 'Sn']",mp-585408,4,Li3Sn2(PO4)3,R-3
4173,0.048507153,"['Li', 'O', 'P', 'V']",mp-764071,4,Li3V3P8O29,P1
4174,0.048510314,"['Li', 'Mn', 'O']",mp-1174008,3,Li3Mn2O5,P-1
4175,0.048515169,"['Co', 'Li', 'O', 'P']",mp-31575,4,LiCo2P5O16,Pc
4176,0.048531033,"['Li', 'O', 'P', 'W']",mp-763442,4,LiP4WO12,C2/c
4177,0.048537054,"['Fe', 'Li', 'O', 'Zn']",mp-1177501,4,Li3Zn2Fe19O32,Cm
4178,0.048542707,"['Cr', 'Fe', 'Li', 'O']",mp-780017,4,Li3Cr2(FeO4)2,C2/m
4179,0.048555192,"['Li', 'Mo', 'O', 'Pr']",mp-1211147,4,LiPr(MoO4)2,P2/c
4180,0.048561754,"['Fe', 'Li', 'O', 'Ti']",mp-1222378,4,LiTiFeO4,Cm
4181,0.048565187,"['Li', 'O', 'P', 'W']",mp-776637,4,Li3P3(WO6)2,P2_1/c
4182,0.048565563,"['B', 'Li', 'O', 'Sb']",mp-769411,4,Li6B3SbO9,P2_1/c
4183,0.048588448,"['Fe', 'Li', 'O', 'P']",mp-849560,4,Li5Fe4(P2O7)4,P1
4184,0.048594093,"['Cr', 'Li', 'O', 'V']",mp-850093,4,Li2VCr2O6,C2/m
4185,0.048623505,"['Li', 'Mn', 'O']",mp-694887,3,Li9Mn22O48,Cm
4186,0.048626002,"['Li', 'O', 'P', 'V']",mp-764117,4,Li3V3P8O29,P1
4187,0.04863461,"['Co', 'Li', 'O', 'P']",mp-765448,4,LiCoPO4,Pc
4188,0.048634948,"['Li', 'Mn', 'Ni', 'O']",mp-762588,4,Li4Mn2Ni5O12,P2_1
4189,0.04866335,"['Fe', 'K', 'Li', 'O']",mp-1178139,4,KLi2FeO3,Pnma
4190,0.048667699,"['Li', 'Ni', 'O', 'P']",mp-777968,4,Li5Ni2(PO4)3,P2_1
4191,0.048679941,"['Li', 'O', 'P', 'V']",mp-764073,4,Li3V3P8O29,P1
4192,0.048683115,"['B', 'Fe', 'Li', 'O']",mp-777255,4,LiFeBO3,P-6
4193,0.048700143,"['Co', 'Fe', 'Li', 'O']",mp-1177761,4,Li3Fe2(CoO4)2,C2/m
4194,0.048734163,"['Li', 'O', 'P', 'V']",mp-1177222,4,Li4V3P8O29,P1
4195,0.048789715,"['Co', 'Li', 'O']",mp-1174003,3,Li5Co3O8,C2/m
4196,0.048797993,"['Fe', 'Li', 'O']",mp-763675,3,Li4Fe7O12,P2_1
4197,0.048818954,"['B', 'Li', 'Mn', 'O']",mp-780512,4,Li2Mn3(BO3)3,P-1
4198,0.048833216,"['Cr', 'Li', 'O', 'Si']",mp-761333,4,Li2CrSiO4,P3_121
4199,0.04884098,"['Li', 'O', 'P', 'V']",mp-1177400,4,Li4V3P8O29,P1
4200,0.048843944,"['Co', 'Li', 'O', 'P']",mp-540469,4,Li2Co3(P2O7)2,P-1
4201,0.048850481,"['Fe', 'Li', 'O']",mp-1178121,3,Li(Fe2O3)4,P-1
4202,0.048858088,"['Co', 'Li', 'O', 'V']",mp-773359,4,Li2VCoO4,Imma
4203,0.048877678,"['Li', 'O', 'P', 'V']",mp-1177184,4,Li4V3P8O29,P1
4204,0.048892118,"['Li', 'Mn', 'O', 'P']",mp-1177157,4,Li5Mn4(P2O7)4,P1
4205,0.048893595,"['Li', 'Ni', 'O', 'P']",mp-765882,4,LiNi(PO3)3,P-1
4206,0.048905788,"['Li', 'O', 'P', 'V']",mp-765021,4,Li2V3(P2O7)2,P-1
4207,0.048932365,"['Li', 'O', 'P', 'V']",mp-764032,4,Li3V3P8O29,P1
4208,0.048936301,"['Cu', 'Li', 'Mn', 'O']",mp-771451,4,Li5Mn2Cu3O10,P-1
4209,0.048939525,"['Li', 'O', 'P', 'V']",mp-849447,4,Li3V3P8O29,P1
4210,0.04894064,"['B', 'Li', 'Mn', 'O']",mp-853195,4,Li2Mn3(BO3)3,P1
4211,0.048942737,"['Li', 'Mn', 'O', 'P']",mp-861470,4,LiMnPO4,Pc
4212,0.048972327,"['B', 'Li', 'Mn', 'O']",mp-850980,4,Li2Mn3(BO3)3,P1
4213,0.048995078,"['Fe', 'Li', 'O', 'Sn']",mp-773162,4,Li3Fe2SnO6,C2/m
4214,0.048999292,"['Li', 'O', 'P', 'V']",mp-766655,4,Li4V3P8O29,P1
4215,0.049001045,"['Cu', 'Li', 'O', 'P']",mp-760165,4,LiCu2(PO3)5,Pc
4216,0.049023674,"['Li', 'Mn', 'O', 'P']",mp-761577,4,Li7Mn4P9O32,P-42_1c
4217,0.049026858,"['B', 'Cr', 'Li', 'O']",mp-769985,4,LiCrB2O5,P2_1/c
4218,0.049027867,"['Fe', 'Li', 'Ni', 'O']",mp-769796,4,Li3Fe4NiO8,C2/m
4219,0.049028172,"['Li', 'O', 'P', 'W']",mp-763367,4,LiP2WO7,P-1
4220,0.049028653,"['Li', 'O', 'P', 'V']",mp-766648,4,Li4V3P8O29,P1
4221,0.049041148,"['Li', 'Mn', 'O']",mp-1173945,3,Li3Mn2O5,C2/m
4222,0.049041373,"['Fe', 'Li', 'O', 'Ti']",mp-868572,4,Li6TiFe5O12,C2
4223,0.049047945,"['Li', 'O', 'P', 'V']",mp-540479,4,Li2V(PO4)2,Pc
4224,0.049048134,"['Fe', 'Li', 'O', 'P']",mp-853269,4,Li5Fe4(P2O7)4,P1
4225,0.049049705,"['Li', 'O', 'Ti']",mp-760093,3,LiTi8O16,Cmc2_1
4226,0.049050142,"['Cu', 'Li', 'O', 'V']",mp-775500,4,Li11V12(CuO4)12,C2/m
4227,0.049061427,"['Co', 'Li', 'O', 'P']",mp-31560,4,Li2Co(PO3)4,P2_1/c
4228,0.049063486,"['Co', 'Li', 'O', 'V']",mp-1177804,4,Li2VCoO4,P1
4229,0.049069019,"['B', 'Co', 'Li', 'O']",mp-771395,4,Li3Co4(BO3)4,Pc
4230,0.049071168,"['Cu', 'Li', 'O', 'P']",mp-758624,4,LiCuPO4,Pca2_1
4231,0.049078665,"['Li', 'O', 'P', 'V']",mp-863871,4,Li3V3P8O29,P1
4232,0.049087851,"['Li', 'Mn', 'O', 'P']",mp-1177173,4,Li5Mn4(P2O7)4,P1
4233,0.049089884,"['Li', 'Mn', 'O', 'Sn']",mp-771933,4,Li2Mn2SnO6,Cmce
4234,0.049092029,"['Co', 'Li', 'Mn', 'O']",mp-1174186,4,Li4Mn3CoO8,C2/m
4235,0.049107557,"['Li', 'O', 'V', 'W']",mp-771496,4,Li2V3WO8,R-3m
4236,0.049110749,"['Cr', 'Li', 'O', 'P']",mp-31739,4,Li2CrP4O13,P-1
4237,0.049118949,"['Li', 'Mn', 'O']",mp-1176656,3,LiMn2O4,P-1
4238,0.049131521,"['Ce', 'Li', 'O']",mp-1178039,3,Li2CeO3,C2/c
4239,0.049134303,"['Fe', 'Li', 'O', 'P']",mp-761453,4,Li5FeP3O11,P-1
4240,0.049174557,"['B', 'Fe', 'Li', 'O']",mp-764570,4,LiFe2(BO3)2,P1
4241,0.04917794,"['Li', 'O', 'Tb']",mp-8425,3,Li8TbO6,R-3
4242,0.049178344,"['Li', 'O', 'Si']",mp-35822,3,Li4SiO4,P1
4243,0.049194815,"['B', 'Li', 'O', 'V']",mp-861575,4,Li3V(BO3)2,P-1
4244,0.049203735,"['Co', 'Li', 'O', 'P']",mp-763060,4,LiCoPO4,Pna2_1
4245,0.049211956,"['Li', 'O', 'P', 'V']",mp-1177214,4,Li4V3P8O29,P1
4246,0.049217685,"['Li', 'O', 'P', 'V']",mp-861841,4,Li3V3P8O29,P1
4247,0.049219178,"['Cr', 'Li', 'Mn', 'O']",mp-772402,4,Li4Mn5Cr3O16,Cm
4248,0.049231635,"['Fe', 'Li', 'Mg', 'O']",mp-771996,4,Li3Mg2Fe19O32,Cm
4250,0.049300256,"['Li', 'O', 'Sn']",mp-1222532,3,Li7(SnO3)4,C2
4251,0.049307383,"['Fe', 'Li', 'O']",mp-770885,3,Li3FeO3,P2_1/c
4252,0.049329594,"['Cr', 'Li', 'Ni', 'O']",mp-1178044,4,Li2Cr3NiO8,P4_3
4253,0.04933857,"['Li', 'Ni', 'O']",mp-25606,3,LiNiO2,C2/m
4254,0.049341282,"['In', 'Li', 'O']",mp-753783,3,Li5InO4,Pmmn
4255,0.049359312,"['Li', 'Mn', 'O']",mp-1175351,3,Li7Mn5O12,P-1
4256,0.049363988,"['Al', 'Li', 'O', 'V']",mp-769737,4,LiAlVO4,Pnma
4257,0.049380478,"['Co', 'Li', 'Mn', 'O']",mp-1174049,4,Li5Mn2CoO8,C2/m
4258,0.049380646,"['Fe', 'Li', 'O', 'P']",mp-762846,4,Li3Fe2(PO4)3,C2
4259,0.049382015,"['Li', 'O', 'P', 'V']",mp-1176893,4,Li7V4(PO4)6,P1
4260,0.049391204,"['Cu', 'La', 'Li', 'O']",mp-774793,4,LiLa8Cu3O16,P1
4261,0.049424921,"['Fe', 'Li', 'O', 'Si']",mp-764784,4,LiFeSiO4,Cc
4262,0.049438731,"['Li', 'Mn', 'O']",mp-762404,3,LiMn3O6,Cc
4263,0.049442074,"['Li', 'Mn', 'O', 'V']",mp-774424,4,LiMnVO4,P4_322
4264,0.049445288,"['Fe', 'Li', 'O']",mp-1177185,3,Li5Fe3O8,P2_1
4265,0.049456958,"['Cu', 'Li', 'O', 'P']",mp-759767,4,LiCu(PO3)3,Pbcm
4266,0.049462821,"['Li', 'O', 'P', 'V']",mp-762963,4,Li4V3P8O29,Cc
4267,0.049464413,"['Li', 'O', 'Ti', 'V']",mp-765678,4,Li3TiV3O8,P6_3mc
4268,0.049469025,"['Co', 'Li', 'O', 'P']",mp-865198,4,LiCoPO4,P6_3
4269,0.049474642,"['B', 'Li', 'Mn', 'O']",mp-850396,4,Li2Mn3(BO3)3,P-1
4270,0.049487192,"['Li', 'O', 'Ti']",mp-675692,3,LiTi2O4,C2
4271,0.049489469,"['C', 'Co', 'Li', 'O']",mp-767053,4,Li2Co(CO3)2,P1
4272,0.049497319,"['Li', 'Mo', 'O', 'P']",mp-32092,4,LiMoPO5,Pna2_1
4273,0.049497352,"['Co', 'Li', 'Mn', 'O']",mp-1174267,4,Li4Mn3CoO8,C2/m
4274,0.049497449,"['Cr', 'Li', 'O', 'W']",mp-771537,4,Li7Cr3(WO8)2,Cm
4275,0.04951902,"['Fe', 'Li', 'Mn', 'O']",mp-762805,4,Li4Mn5(FeO6)2,P2_1
4276,0.049523292,"['B', 'Li', 'Mn', 'O']",mp-850965,4,Li2Mn3(BO3)3,P-1
4277,0.049530308,"['Cr', 'Li', 'O', 'Sn']",mp-770671,4,Li4Cr5Sn3O16,Cm
4278,0.049535305,"['Li', 'Mn', 'O']",mp-770511,3,LiMn3O5,Pbam
4279,0.049565285,"['Co', 'Li', 'Mn', 'O']",mp-1173959,4,Li3Mn2CoO6,P-1
4280,0.049576294,"['C', 'Co', 'Li', 'O']",mp-762283,4,LiCo(CO3)2,P2_1/c
4281,0.049599961,"['B', 'Fe', 'Li', 'O']",mp-775322,4,Li5Fe8(BO3)8,P1
4282,0.049604441,"['Fe', 'Li', 'O', 'W']",mp-773457,4,Li9Fe3(WO4)7,R3m
4283,0.049606041,"['Cu', 'Li', 'O', 'P']",mp-758797,4,LiCu(PO3)3,P-1
4284,0.049613955,"['B', 'Li', 'O', 'Ti']",mp-759926,4,Li2Ti(BO3)2,P2_1/c
4285,0.049614989,"['Cr', 'Fe', 'Li', 'O']",mp-1222585,4,LiCr(FeO2)4,C2/m
4286,0.049617949,"['Li', 'O', 'P', 'V']",mp-1177194,4,Li4V3P8O29,P1
4287,0.049622904,"['Cr', 'Li', 'O']",mp-763266,3,Li2CrO4,P-1
4288,0.049629018,"['Cr', 'Li', 'O', 'P']",mp-1177459,4,Li4CrP2O9,P2/c
4289,0.049639461,"['Li', 'O', 'P', 'V']",mp-853208,4,Li4V3P8O29,P1
4290,0.049646516,"['Fe', 'Li', 'O']",mp-780216,3,Li5Fe3O8,P1
4291,0.049650985,"['Cr', 'Li', 'O', 'Si']",mp-762393,4,Li2Cr(Si2O5)2,P-1
4292,0.049655003,"['La', 'Li', 'O']",mp-780259,3,Li5LaO4,P4_2/nmc
4293,0.049670474,"['C', 'Li', 'O', 'V']",mp-763717,4,LiV2(CO3)4,P-1
4294,0.049677869,"['Co', 'Li', 'O']",mp-763412,3,Li4Co13O28,P1
4295,0.049694183,"['Fe', 'Li', 'O', 'P']",mp-762485,4,Li2FeP2O7,P-1
4296,0.049708313,"['Co', 'Li', 'Mn', 'O']",mp-1174170,4,Li4Mn3CoO8,P2/m
4297,0.04971428,"['Li', 'Nb', 'O', 'V']",mp-772554,4,Li4Nb3V5O16,Cm
4298,0.049716436,"['Fe', 'Li', 'O', 'Si']",mp-767726,4,Li2Fe2Si3O10,P1
4299,0.049719328,"['Li', 'Mn', 'O', 'P']",mp-770168,4,Li5Mn2(PO4)3,P1
4300,0.049723371,"['Co', 'Li', 'O', 'P']",mp-761658,4,Li2CoP2O7,P-1
4301,0.049723815,"['Li', 'O', 'Ru']",mp-757395,3,Li11(RuO3)8,P1
4302,0.049730256,"['Cr', 'Li', 'Ni', 'O']",mp-770877,4,Li3Cr3NiO8,R-3m
4303,0.04976124,"['Li', 'O', 'Si', 'V']",mp-775301,4,LiV(Si2O5)3,Cmce
4304,0.049763015,"['Cr', 'Li', 'Mn', 'O']",mp-851000,4,Li9Mn7Cr12O48,P1
4305,0.049771614,"['Co', 'Li', 'Mn', 'O']",mp-1174209,4,Li4Mn3CoO8,P2/m
4306,0.049774998,"['Co', 'Li', 'Mn', 'O']",mp-1174175,4,Li4Mn3CoO8,C2/m
4307,0.049786769,"['Li', 'Ni', 'O', 'P']",mp-861539,4,Li4Ni7(PO4)6,Cm
4308,0.049788995,"['Li', 'O', 'P', 'W']",mp-762200,4,LiP2WO7,P2_1/c
4309,0.049796978,"['Co', 'Li', 'Mn', 'O']",mp-779065,4,Li2Mn2CoO6,P-1
4310,0.049813721,"['Li', 'O', 'P', 'Sn']",mp-757663,4,LiSn(PO3)4,P-1
4311,0.049814822,"['Li', 'Ni', 'O', 'W']",mp-1177874,4,Li2Ni3WO8,P4_32_12
4312,0.049814991,"['Li', 'O', 'P', 'V']",mp-1177320,4,Li4V3P8O29,C2
4313,0.049816129,"['Cr', 'Li', 'O', 'P']",mp-780109,4,Li4Cr5(P3O11)2,P2_1/c
4314,0.049820558,"['Cr', 'H', 'Li', 'O']",mp-779829,4,Li9Cr2(H9O7)3,P-1
4315,0.049848971,"['Li', 'Ni', 'O', 'P']",mp-761648,4,LiNi(PO3)3,P-1
4316,0.049860815,"['Co', 'Li', 'O']",mp-1174153,3,Li5Co3O8,P-1
4317,0.04987845,"['Li', 'O', 'P', 'V']",mp-1177190,4,Li4V3P8O29,P1
4318,0.049883486,"['Co', 'Li', 'Mn', 'O']",mp-1174189,4,Li4Mn3CoO8,C2/m
4319,0.049884094,"['Li', 'O', 'P', 'V']",mp-1177191,4,Li4V3P8O29,P1
4320,0.049886927,"['Li', 'Mn', 'Na', 'O']",mp-765725,4,Na3Li5Mn5O9,P1
4321,0.049888744,"['Gd', 'Li', 'O']",mp-1177660,3,Li3GdO3,P-31c
4322,0.049888914,"['Li', 'Mn', 'O']",mp-770641,3,LiMn7O12,I4_1/acd
4323,0.04989646,"['Li', 'O', 'P', 'W']",mp-762217,4,Li2P4WO13,P-1
4324,0.049905854,"['Li', 'Mn', 'O', 'P']",mp-1176762,4,LiMn(PO3)3,Cc
4325,0.04992135,"['Fe', 'Li', 'Ni', 'O']",mp-762761,4,Li4Fe2Ni5O12,P2_1
4326,0.049933139,"['Li', 'Ni', 'O', 'P']",mp-861091,4,Li5NiP3O11,P-1
4327,0.049933337,"['Fe', 'Li', 'O', 'P']",mp-762519,4,Li4Fe7(PO4)6,Cm
4328,0.049933573,"['Li', 'Mn', 'O', 'P']",mp-761618,4,LiMnPO5,P2_1/c
4329,0.049941625,"['Li', 'Mn', 'O', 'Sb']",mp-773202,4,Li5Mn5(SbO6)2,C2
4330,0.049977764,"['Cu', 'Li', 'O', 'W']",mp-510765,4,Li3Cu2(WO4)4,P1
4331,0.049977869,"['Li', 'Mn', 'O', 'Ti']",mp-771683,4,Li2TiMn3O8,R-3m
4332,0.049991501,"['Cr', 'Li', 'O']",mp-773197,3,Li2Cr4O13,C2/c
4333,0.049998829,"['Co', 'Li', 'Nb', 'O']",mp-772463,4,Li3Nb(CoO2)4,C2/m