,e_above_hull,elements,material_id,nelements,pretty_formula,spacegroup.symbol
2121,0.023833623,"['Li', 'O', 'P', 'V']",mp-1176920,4,Li6V3P8O29,P1
2122,0.023864906,"['Li', 'Ni', 'O', 'P']",mp-861635,4,LiNi4(PO4)3,Pnnm
2123,0.023877922,"['Co', 'Li', 'O', 'P']",mp-585175,4,LiCo(PO3)3,Pbcm
2124,0.02390522,"['Li', 'Mn', 'Na', 'O']",mp-762649,4,Na3LiMn5O9,P1
2125,0.02393386,"['Li', 'Mn', 'O', 'P']",mp-1177925,4,Li2Mn2(PO4)3,Pbcn
2126,0.023937512,"['Li', 'Mg', 'O', 'W']",mp-1040095,4,LiMg30WO32,P4/mmm
2127,0.023982053,"['Li', 'O', 'P', 'V']",mp-1176948,4,Li6V3P8O29,P1
2128,0.023987288,"['Cr', 'Li', 'O', 'Ti']",mp-1222347,4,LiTiCrO4,Pmc2_1
2129,0.023992219,"['Li', 'O', 'Ti']",mp-1222656,3,Li2TiO3,Immm
2130,0.023996531,"['Co', 'Li', 'Mn', 'O']",mp-1175141,4,Li7Mn4CoO12,P-1
2131,0.024000298,"['Li', 'O', 'P', 'V']",mp-1176926,4,Li6V3P8O29,P1
2132,0.024010475,"['Li', 'Mn', 'O', 'Sb']",mp-773720,4,LiMnSbO4,Imma
2133,0.024016577,"['Cr', 'Li', 'Mn', 'O']",mp-773308,4,Li2MnCrO4,I-4m2
2134,0.024043571,"['Li', 'Mn', 'O', 'P']",mp-540192,4,Li2MnP2O7,C2/c
2135,0.024044936,"['Co', 'Li', 'Ni', 'O']",mp-1176867,4,Li8CoNi9O20,Pm
2136,0.024044988,"['Li', 'Mn', 'O']",mp-1100524,3,Li9Mn7O16,P-1
2137,0.02404928,"['B', 'Li', 'Mn', 'O']",mp-770904,4,Li3Mn(BO3)2,P-1
2138,0.024062262,"['Li', 'Mn', 'O']",mp-1003637,3,LiMn3O6,Cm
2139,0.024066075,"['B', 'Li', 'O', 'Zn']",mp-758855,4,LiZnBO3,P1
2140,0.024068138,"['Li', 'O', 'P', 'V']",mp-1176943,4,Li6V3P8O29,P1
2141,0.02407271,"['Li', 'O', 'P', 'V']",mp-761515,4,Li6V3P8O29,P1
2142,0.024102273,"['Cu', 'Fe', 'Li', 'O']",mp-1177950,4,Li2FeCuO4,I-4m2
2143,0.024114622,"['Li', 'Mn', 'O', 'P']",mp-771576,4,LiMn2(PO4)2,C2
2144,0.02412792,"['Fe', 'Li', 'O', 'Si']",mp-775228,4,LiFeSiO4,Pc
2145,0.024156664,"['Co', 'Li', 'Na', 'O']",mp-861533,4,Na2Li2CoO4,P1
2146,0.02416261,"['Cr', 'Li', 'O', 'P']",mp-697753,4,Li3Cr2(PO4)3,Cc
2147,0.024194476,"['Li', 'O', 'P', 'V']",mp-761520,4,Li6V3P8O29,P1
2148,0.024202895,"['C', 'Li', 'Mn', 'O']",mp-763151,4,LiMnCO4,P2_1/c
2149,0.024220239,"['Fe', 'Li', 'O']",mp-772250,3,Li8FeO6,P-1
2150,0.024224316,"['Fe', 'Li', 'Mn', 'O']",mp-770627,4,Li2MnFeO4,Imma
2151,0.024239376,"['Co', 'Li', 'O', 'P']",mp-585348,4,Li9Co3P8O29,P-3c1
2152,0.024255645,"['Li', 'O', 'P', 'W']",mp-763466,4,LiP4WO12,C2/c
2153,0.024255783,"['Co', 'Li', 'O']",mp-769483,3,Li11(CoO4)2,C222_1
2154,0.024260602,"['Co', 'Fe', 'Li', 'O']",mp-769797,4,Li3Fe4CoO8,C2/m
2155,0.024280976,"['Cr', 'Li', 'O', 'P']",mp-777909,4,Li2Cr2(PO4)3,C2/c
2156,0.024284595,"['Li', 'O', 'P', 'V']",mp-761490,4,Li6V3P8O29,P1
2157,0.024305802,"['Li', 'O', 'P', 'V']",mp-772299,4,Li6V3P8O29,P1
2158,0.024308934,"['Fe', 'Li', 'O', 'V']",mp-770493,4,Li5V2Fe5O12,C2
2159,0.024326198,"['Li', 'Mn', 'O']",mp-761972,3,Li7Mn14O32,R3m
2160,0.024347259,"['B', 'Li', 'Mn', 'O']",mp-850959,4,Li5Mn6(BO3)6,P1
2161,0.024374099,"['Li', 'O', 'P', 'V']",mp-1176902,4,Li6V3P8O29,Cc
2162,0.024378665,"['B', 'Li', 'Mn', 'O']",mp-781617,4,Li5Mn6(BO3)6,P1
2163,0.024423312,"['Li', 'O', 'P', 'V']",mp-772688,4,Li6V3P8O29,P1
2164,0.024454535,"['Li', 'O', 'P', 'V']",mp-773378,4,Li6V3P8O29,P1
2165,0.024469688,"['Al', 'Fe', 'Li', 'O']",mp-770707,4,Li2AlFeO4,Pna2_1
2166,0.024477539,"['Li', 'Ni', 'O', 'V']",mp-772343,4,LiVNiO4,Pnma
2167,0.024482008,"['Li', 'Mn', 'O']",mp-1100559,3,Li9Mn7O16,P-1
2168,0.024495541,"['Li', 'Mn', 'O']",mp-1100544,3,Li9Mn7O16,P-1
2169,0.024505527,"['Li', 'Mn', 'O']",mp-1100545,3,Li9Mn7O16,P-1
2170,0.024521954,"['Li', 'Mn', 'O']",mp-1100547,3,Li9Mn7O16,P-1
2171,0.02454075,"['Co', 'Fe', 'Li', 'O']",mp-775095,4,Li2Fe3CoO8,R-3m
2172,0.024541712,"['Li', 'Mn', 'O']",mp-1100546,3,Li9Mn7O16,P-1
2173,0.024546269,"['Co', 'Li', 'Mn', 'O']",mp-1173910,4,Li2MnCoO4,P2/c
2174,0.024550975,"['Co', 'Li', 'Mn', 'O']",mp-1175148,4,Li7Mn4CoO12,P-1
2175,0.024583935,"['Ca', 'Ce', 'Li', 'O']",mp-556301,4,Li6CaCeO6,P-31c
2176,0.024728166,"['Fe', 'Li', 'O', 'Si']",mp-762799,4,LiFeSiO4,Pca2_1
2177,0.024734093,"['Li', 'O', 'P', 'V']",mp-772453,4,Li6V3P8O29,P1
2178,0.024742937,"['Co', 'Li', 'Ni', 'O']",mp-765798,4,Li2CoNiO4,P2/m
2179,0.024762272,"['Li', 'O', 'P', 'Sb']",mp-759185,4,LiSb(PO3)4,C2/c
2180,0.024767418,"['Li', 'O', 'Tl']",mp-8179,3,LiTlO2,I4_1/amd
2181,0.024785786,"['Li', 'Mn', 'O']",mp-1100539,3,Li9Mn7O16,P-1
2182,0.024807536,"['Li', 'Mn', 'O', 'P']",mp-540221,4,LiMnP2O7,P2_1/c
2183,0.024811882,"['Fe', 'Li', 'Mn', 'O']",mp-773347,4,Li2MnFeO4,P2/m
2184,0.024822042,"['B', 'Fe', 'Li', 'O']",mp-767724,4,Li5Fe3(BO3)4,Pc
2185,0.024828379,"['Co', 'Li', 'O', 'P']",mp-767254,4,LiCo2(PO4)2,C2
2186,0.024831649,"['Li', 'Mn', 'O', 'V']",mp-1177949,4,Li2Mn2V3O12,Pbcn
2187,0.024852525,"['Fe', 'Li', 'O', 'Si']",mp-763641,4,LiFeSiO4,Pca2_1
2188,0.024860999,"['Li', 'Mn', 'O', 'P']",mp-1176727,4,LiMn3(PO4)3,P2_1
2189,0.024895858,"['Cu', 'Fe', 'Li', 'O']",mp-763924,4,Li4Fe3CuO8,R-3m
2190,0.024908439,"['B', 'Co', 'Li', 'O']",mp-1176777,4,LiCoBO3,P-6
2191,0.024948353,"['Li', 'Mn', 'O']",mp-1100516,3,Li9Mn7O16,P-1
2192,0.024949368,"['Co', 'Li', 'O', 'P']",mp-699346,4,LiCo2(PO3)5,Pc
2193,0.024965578,"['Li', 'O', 'P', 'V']",mp-772471,4,Li6V3P8O29,P1
2194,0.024985538,"['B', 'Fe', 'Li', 'O']",mp-764459,4,Li3Fe4(BO3)4,P1
2195,0.024996633,"['Li', 'O', 'P', 'V']",mp-761505,4,Li6V3P8O29,P1
2196,0.025031606,"['Li', 'Mn', 'O']",mp-1003315,3,LiMn4O8,P2_1/c
2197,0.025050513,"['Li', 'O', 'P', 'W']",mp-777867,4,Li2P8W3O29,Cc
2198,0.025073948,"['Li', 'Mn', 'O']",mp-1100543,3,Li9Mn7O16,P-1
2199,0.025089492,"['Cr', 'Li', 'Mn', 'O']",mp-763907,4,Li5Mn3Cr2O10,P1
2200,0.025090133,"['La', 'Li', 'O']",mp-1020057,3,LiLaO2,P2_1/c
2201,0.025093723,"['Co', 'Li', 'Mn', 'O']",mp-1175162,4,Li7Mn4CoO12,C2/m
2202,0.02510849,"['Li', 'O', 'P', 'Sn']",mp-776484,4,Li6Sn3P8O29,P1
2203,0.025113175,"['B', 'Li', 'Mn', 'O']",mp-769439,4,Li5Mn6(BO3)6,Cc
2204,0.025125547,"['Li', 'O', 'V']",mp-1176549,3,LiV3O6,P1
2205,0.02512946,"['Li', 'Fe', 'P', 'O']",mp-540231,4,Li2FeP2O7,P2_1/c
2206,0.025170689,"['Li', 'Mo', 'O', 'P']",mp-1101528,4,Li3Mo(PO4)2,P2_1/c
2207,0.025192463,"['Fe', 'Li', 'O', 'Si']",mp-762540,4,Li2FeSiO4,Pna2_1
2208,0.025203419,"['Co', 'Li', 'O', 'Si']",mp-764957,4,Li2CoSiO4,Pna2_1
2209,0.025210541,"['Li', 'O', 'P', 'V']",mp-765422,4,Li9V3P8O29,P1
2210,0.025253951,"['Li', 'Ni', 'O', 'P']",mp-540234,4,Li2NiP2O7,P2_1/c
2211,0.025255472,"['Fe', 'Li', 'O']",mp-771995,3,LiFeO2,P-1
2212,0.025261028,"['Al', 'Li', 'O', 'V']",mp-770979,4,Li2AlVO4,P-1
2213,0.025273965,"['Al', 'Fe', 'Li', 'O']",mp-770704,4,Li2AlFeO4,P2_1/c
2214,0.025341842,"['Li', 'O', 'P', 'V']",mp-765032,4,Li6V3P8O29,P1
2215,0.025344063,"['Fe', 'Li', 'Ni', 'O']",mp-771555,4,Li5Fe5(NiO6)2,C2
2216,0.025360413,"['Li', 'O', 'P', 'V']",mp-1176921,4,Li6V3P8O29,P1
2217,0.025373145,"['Li', 'Mn', 'Ni', 'O']",mp-777280,4,Li3Mn(NiO3)2,C2/m
2218,0.025414067,"['Li', 'Mn', 'O', 'P']",mp-771544,4,LiMn2(PO4)2,P-1
2219,0.025421318,"['Fe', 'Li', 'O', 'P']",mp-585226,4,Li3Fe2(PO4)3,C2/c
2220,0.02547563,"['Li', 'O', 'V']",mp-19408,3,LiV2O5,Pnma
2221,0.025483783,"['Li', 'Mn', 'O']",mp-1100530,3,Li9Mn7O16,P-1
2222,0.025485187,"['Li', 'Mo', 'Nd', 'O']",mp-1211174,4,LiNd(MoO4)2,P2/c
2223,0.025501019,"['Li', 'Mn', 'O', 'Ti']",mp-771575,4,Li2TiMn3O8,Cmc2_1
2224,0.025518044,"['Al', 'Fe', 'Li', 'O']",mp-770733,4,Li2AlFeO4,Pna2_1
2225,0.025541651,"['B', 'Li', 'O', 'V']",mp-772628,4,Li3V(BO3)2,P2_1/c
2226,0.025606326,"['Li', 'O', 'P', 'W']",mp-777285,4,Li9P8W3O29,P-3c1
2227,0.025623374,"['Li', 'O', 'P', 'V']",mp-1176912,4,Li6V3P8O29,P1
2228,0.025626531,"['H', 'Li', 'O', 'P']",mp-733849,4,Li2P2H2O7,R-3m
2229,0.025636132,"['Fe', 'Li', 'O', 'Ti']",mp-775060,4,LiTiFeO4,P4_322
2230,0.025699369,"['B', 'Fe', 'Li', 'O']",mp-764486,4,Li3Fe4(BO3)4,P1
2231,0.025703708,"['Li', 'O', 'P', 'Sn']",mp-26407,4,Li2SnP2O7,P2_1/c
2232,0.025713245,"['Li', 'Mn', 'O', 'P']",mp-771654,4,LiMn2(PO4)2,P-1
2233,0.025716919,"['Li', 'Mn', 'O', 'P']",mp-778730,4,LiMn2(PO4)2,P1
2234,0.025733286,"['Li', 'O', 'Sb', 'Sm']",mp-774794,4,Li5Sm3(SbO6)2,P1
2235,0.025755928,"['Co', 'Li', 'Mn', 'O']",mp-1175125,4,Li7Mn4CoO12,P-1
2236,0.025767776,"['Li', 'O', 'Ta']",mp-1177079,3,Li5Ta12O32,Pmmn
2237,0.025768169,"['Co', 'Li', 'O']",mp-1172965,3,Li16(CoO4)3,P1
2238,0.025819339,"['Fe', 'Li', 'O', 'P']",mp-31817,4,Li2Fe(PO3)4,C2/c
2239,0.025841424,"['Li', 'O', 'P', 'V']",mp-1177068,4,Li6V3P8O29,P1
2240,0.025841929,"['Cr', 'Li', 'O', 'P']",mp-585424,4,LiCrPO4,P2_1/c
2241,0.02584816,"['Fe', 'Li', 'O']",mp-770886,3,Li3FeO3,Pnma
2242,0.025860814,"['Li', 'Mn', 'O', 'P']",mp-762574,4,Li3Mn3(PO4)4,Pc
2243,0.025880497,"['Li', 'O', 'Ti']",mp-1193296,3,LiTi2O4,Pnnm
2244,0.025881125,"['Li', 'O', 'Ti', 'V']",mp-763676,4,Li4Ti2V5O12,P2_1
2245,0.025894677,"['Li', 'Nb', 'O', 'Ti']",mp-767393,4,Li15Ti11Nb5O42,P3
2246,0.025897745,"['Al', 'Fe', 'Li', 'O']",mp-778565,4,Li2AlFeO4,Pmn2_1
2247,0.025898954,"['B', 'Li', 'Mn', 'O']",mp-780199,4,Li5Mn6(BO3)6,P1
2248,0.025913327,"['Eu', 'Li', 'Mo', 'O']",mp-1223167,4,Li7Eu3(MoO4)8,P1
2249,0.025914887,"['Li', 'Cu', 'O']",mp-773044,3,LiCuO2,Cm
2250,0.025932975,"['Li', 'Mn', 'Co', 'O']",mp-768015,4,LiMnCoO4,Imma
2251,0.025946926,"['Li', 'Mn', 'O']",mp-1174275,3,Li4Mn3O7,P-1
2252,0.025972089,"['Li', 'O', 'P', 'V']",mp-772454,4,Li6V3P8O29,P1
2253,0.025999032,"['Cu', 'Fe', 'Li', 'O']",mp-775462,4,LiFeCuO4,Imma
2254,0.026015093,"['Li', 'O', 'V']",mp-776036,3,LiV6O15,P2_1/c
2255,0.026016817,"['Cr', 'Li', 'O', 'P']",mp-31723,4,Li3Cr(PO4)2,P2_1/c
2256,0.026018231,"['Fe', 'Li', 'O', 'P']",mp-1176749,4,LiFe2(PO4)2,Pmn2_1
2257,0.026050089,"['Fe', 'Li', 'O', 'Sn']",mp-769833,4,Li3Fe4SnO8,C2/m
2258,0.026054787,"['Co', 'Li', 'Mg', 'O']",mp-773461,4,Li4MgCo3O8,R-3m
2259,0.026056295,"['Li', 'O', 'P', 'V']",mp-765330,4,Li6V3P8O29,C2
2260,0.026083039,"['Al', 'Fe', 'Li', 'O']",mp-770629,4,Li2AlFeO4,Pnma
2261,0.026113622,"['Li', 'Mn', 'O', 'P']",mp-767970,4,Li3Mn4(PO4)6,P1
2262,0.026123745,"['Li', 'Mn', 'O']",mp-1100538,3,Li9Mn7O16,P-1
2263,0.026128512,"['Co', 'Li', 'Mn', 'O']",mp-777603,4,LiMnCo3O8,C2/m
2264,0.026135887,"['B', 'Cr', 'Li', 'O']",mp-765261,4,Li3Cr(BO3)2,P2_1/c
2265,0.026159532,"['Fe', 'Li', 'O', 'V']",mp-1177771,4,Li2VFeO4,Imma
2266,0.026164168,"['Li', 'Ni', 'O']",mp-762660,3,Li2(NiO2)3,P1
2267,0.026171989,"['B', 'Fe', 'Li', 'O']",mp-1177721,4,Li3Fe4(BO3)4,P1
2268,0.026173016,"['Li', 'Mo', 'O', 'P']",mp-32088,4,LiMoP4O13,P1
2269,0.026179318,"['Li', 'Mn', 'O']",mp-1100534,3,Li9Mn7O16,P-1
2270,0.026180298,"['Li', 'O', 'Si', 'V']",mp-767778,4,Li2V3Si3O10,C2/c
2271,0.026217251,"['Li', 'Mn', 'O', 'P']",mp-773944,4,Li4Mn2(PO4)3,P-1
2272,0.026219651,"['Li', 'Mn', 'O']",mp-1100515,3,Li9Mn7O16,P-1
2273,0.026223427,"['Li', 'O', 'V']",mp-777032,3,Li3V5O12,P2_1/c
2274,0.026223736,"['Li', 'Mn', 'O']",mp-1100518,3,Li9Mn7O16,P-1
2275,0.026229048,"['Li', 'Mn', 'O', 'P']",mp-540023,4,Li5Mn9(P2O7)8,P1
2276,0.026251398,"['Li', 'O', 'P', 'Ti']",mp-772524,4,LiTi2(PO4)3,P1
2277,0.026271285,"['Li', 'O', 'Ti']",mp-772925,3,Li4Ti5O12,P-1
2278,0.026295876,"['Fe', 'Li', 'O', 'Si']",mp-763635,4,LiFeSiO4,Pna2_1
2279,0.026301746,"['Cr', 'Li', 'O', 'V']",mp-778232,4,Li2V3Cr2O12,Pbcn
2280,0.026334183,"['Li', 'Hf', 'O']",mp-756597,3,Li2HfO3,C2/m
2281,0.026334798,"['Li', 'O', 'P', 'Sb']",mp-26585,4,Li5Sb2P5O18,P-1
2282,0.026354777,"['K', 'Li', 'Nb', 'O']",mp-1198996,4,K3Li2Nb5O15,P4/mbm
2283,0.026356953,"['Li', 'Mn', 'O']",mp-1100529,3,Li9Mn7O16,P-1
2284,0.026358049,"['Li', 'Mn', 'Nb', 'O']",mp-782651,4,Li3MnNb4O12,P1
2285,0.026380934,"['Fe', 'Li', 'O', 'P']",mp-540356,4,LiFe(PO3)4,C2/m
2286,0.02638988,"['Li', 'O', 'P', 'V']",mp-764601,4,Li7V3P8O29,C2/c
2287,0.026439479,"['Li', 'O', 'Ti', 'V']",mp-763993,4,Li2TiVO4,P-1
2288,0.026442564,"['Co', 'Li', 'O', 'Ti']",mp-773984,4,Li3Ti6Co3O16,P2_1
2289,0.026449091,"['Li', 'O', 'P', 'V']",mp-761912,4,Li7V3P8O29,P1
2290,0.02649988,"['Li', 'O', 'P', 'V']",mp-1176942,4,Li6V3P8O29,P1
2291,0.02650537,"['Li', 'Mn', 'O']",mp-1100537,3,Li9Mn7O16,P-1
2292,0.026513671,"['La', 'Li', 'O', 'Ti']",mp-560293,4,LiLa5Ti8O24,Pmm2
2293,0.026541828,"['Co', 'Li', 'O', 'P']",mp-540355,4,LiCoP2O7,P2_1/c
2294,0.02656415,"['Li', 'Mn', 'O', 'P']",mp-705468,4,Li3Mn3(PO4)4,C2
2295,0.026579556,"['Li', 'O', 'P', 'V']",mp-772460,4,Li6V3P8O29,P1
2296,0.026586285,"['Li', 'Mn', 'O']",mp-1174320,3,Li4Mn3O7,P-1
2297,0.0265914,"['Cd', 'Ge', 'Li', 'O']",mp-1202839,4,LiCd4(GeO3)5,P-1
2298,0.026603435,"['Li', 'O', 'P', 'V']",mp-1176938,4,Li6V3P8O29,P1
2299,0.026609724,"['Li', 'O', 'P', 'V']",mp-763881,4,Li6V3P8O29,P1
2300,0.026619656,"['As', 'Co', 'Li', 'O']",mp-1222380,4,LiCoAsO4,Imma
2301,0.026620372,"['Li', 'Ni', 'O', 'P']",mp-778296,4,LiNiPO4,Pnma
2302,0.026634761,"['Al', 'Ge', 'Li', 'O']",mp-16947,4,LiAlGeO4,R-3
2303,0.026635383,"['Li', 'O', 'Si', 'Y']",mp-1222506,4,LiY9(Si3O13)2,P3
2304,0.026638116,"['Li', 'Mn', 'O']",mp-1100532,3,Li9Mn7O16,P-1
2305,0.02667453,"['Li', 'O', 'P', 'Ti']",mp-778149,4,Li6Ti3P8O29,P1
2306,0.026675766,"['B', 'Li', 'Mn', 'O']",mp-782654,4,Li5Mn6(BO3)6,P1
2307,0.026676133,"['Cu', 'Li', 'O', 'P']",mp-26223,4,Li4Cu(PO4)2,P2_1/c
2308,0.026678556,"['Li', 'Nb', 'O', 'Sr']",mp-753864,4,Sr2Li2Nb4O13,I4/mmm
2309,0.026698452,"['Cu', 'La', 'Li', 'O']",mp-774918,4,Li3La14(CuO7)4,C2/m
2310,0.026716592,"['B', 'Li', 'Mn', 'O']",mp-767843,4,Li5Mn6(BO3)6,P1
2311,0.026720653,"['Li', 'Mn', 'O']",mp-1100542,3,Li9Mn7O16,P-1
2312,0.026762131,"['Fe', 'Li', 'Ni', 'O']",mp-770790,4,Li2FeNi3O8,R-3m
2313,0.026764451,"['Li', 'O', 'Ti']",mp-6944,3,LiTiO2,Fd-3m
2314,0.026778303,"['Li', 'Fe', 'O']",mp-769726,3,Li3(FeO2)4,R-3m
2315,0.026779219,"['Li', 'Nb', 'O', 'Ti']",mp-767146,4,Li7Ti12NbO30,R3
2316,0.026841229,"['Ca', 'Li', 'O', 'Ta']",mp-557861,4,Li2CaTa2O7,I4/mmm
2317,0.026847838,"['Co', 'Li', 'Mn', 'O']",mp-1173885,4,Li2MnCoO4,P-1
2318,0.026863513,"['C', 'Co', 'Li', 'O']",mp-769645,4,LiCo(CO3)2,R-3
2319,0.026864788,"['B', 'Li', 'Mn', 'O']",mp-770906,4,Li3Mn(BO3)2,P2_1/c
2320,0.026878691,"['Li', 'O', 'Re']",mp-686110,3,Li(ReO3)5,P-1
2321,0.026894678,"['Li', 'O', 'V']",mp-777033,3,Li9V19O48,P1
2322,0.02690037,"['Li', 'Mn', 'O', 'P']",mp-997545,4,Li3Mn3(PO4)4,P1
2323,0.026930979,"['Co', 'Fe', 'Li', 'O']",mp-850359,4,Li5Fe5(CoO6)2,C2
2324,0.026941843,"['Li', 'Mn', 'O']",mp-1100531,3,Li9Mn7O16,P-1
2325,0.026960649,"['Li', 'Mn', 'O']",mp-1232439,3,Li7Mn5O12,P-1
2326,0.026985088,"['Fe', 'Li', 'O', 'Ti']",mp-769962,4,Li4TiFe3O8,C2/m
2327,0.026994209,"['Co', 'Li', 'Mn', 'O']",mp-1174270,4,Li4Mn3CoO8,C2/m
2328,0.027000125,"['Co', 'Li', 'Mn', 'O']",mp-1175195,4,Li7Mn4CoO12,P1
2329,0.027011861,"['Co', 'Li', 'Mn', 'O']",mp-1174000,4,Li5Mn(CoO4)2,P2
2330,0.027054982,"['Li', 'O', 'P', 'V']",mp-1176947,4,Li6V3P8O29,P-1
2331,0.027070456,"['Li', 'O', 'Ti', 'Zn']",mp-1211002,4,LiTi3Zn2O8,P4_132
2332,0.027071766,"['Co', 'Li', 'O', 'P']",mp-31580,4,Li2CoP2O7,P2_1/c
2333,0.027107564,"['Cu', 'Fe', 'Li', 'O']",mp-777872,4,Li2Fe3CuO8,P4_332
2334,0.027112481,"['Li', 'Mn', 'O']",mp-1174741,3,Li5Mn3O8,P-1
2335,0.027126422,"['Co', 'Li', 'O', 'Sn']",mp-772420,4,Li2Co3SnO8,P6_3mc
2336,0.027141438,"['Co', 'Li', 'Mn', 'O']",mp-1175275,4,Li7Mn4CoO12,P2/m
2337,0.027147317,"['Li', 'O', 'Ti', 'V']",mp-771615,4,Li2TiVO4,Imma
2338,0.027150882,"['Li', 'O', 'P', 'V']",mp-761298,4,LiVPO4,Pnma
2339,0.027196433,"['Cr', 'Li', 'O', 'P']",mp-763025,4,LiCr(PO3)4,C2/c
2340,0.027196677,"['La', 'Li', 'O', 'Ti']",mp-752433,4,LiLa3Ti4O12,Cm
2341,0.027232811,"['Li', 'Mn', 'O', 'P']",mp-777068,4,LiMnP2O7,Pc
2342,0.027243935,"['Al', 'Li', 'O', 'V']",mp-770102,4,Li3Al2VO6,C2/m
2343,0.027252372,"['As', 'Ga', 'Li', 'O']",mp-545346,4,LiGaAs2O7,C2
2344,0.027261191,"['Fe', 'K', 'Li', 'O']",mp-763502,4,K4Li5(FeO4)2,P1
2345,0.027296778,"['Li', 'O', 'P', 'Ti']",mp-684119,4,LiTi(PO3)5,P2_1/c
2346,0.027301298,"['B', 'Fe', 'Li', 'O']",mp-850446,4,Li3Fe4(BO3)4,P1
2347,0.027305496,"['Li', 'Mn', 'O', 'P']",mp-851002,4,Li4Mn2(PO4)3,P2_1/c
2348,0.027313335,"['Cr', 'Li', 'O', 'P']",mp-697855,4,Li2Cr3(P2O7)2,P-1
2349,0.027360379,"['Cr', 'Li', 'O']",mp-770628,3,Li2CrO3,C2/c
2350,0.027367046,"['Fe', 'Li', 'Mn', 'O']",mp-769550,4,Li2Mn5(FeO6)2,Cc
2351,0.027368655,"['Li', 'Ni', 'O', 'W']",mp-772370,4,Li2Ni3WO8,P6_3mc
2352,0.027374505,"['Cr', 'Li', 'O', 'Ti']",mp-777464,4,Li4Ti5Cr3O16,Cm
2353,0.027376877,"['B', 'Fe', 'Li', 'O']",mp-771409,4,Li2FeBO4,P2_1/c
2354,0.027380357,"['Fe', 'Li', 'Mn', 'O']",mp-769811,4,Li3Mn4FeO8,C2/m
2355,0.027389002,"['Co', 'Li', 'O']",mp-769791,3,Li4CoO3,Cc
2356,0.02739742,"['Li', 'Mn', 'O']",mp-1175343,3,Li7Mn5O12,P-1
2357,0.027443163,"['Li', 'O', 'V']",mp-773356,3,Li8VO6,P-1
2358,0.027457118,"['Li', 'Mo', 'O', 'P']",mp-585209,4,Li2Mo(PO4)2,P-3
2359,0.027505024,"['Li', 'O', 'P', 'V']",mp-765711,4,Li9V3P8O29,P1
2360,0.027522951,"['Li', 'O', 'P', 'V']",mp-1176873,4,Li7V3P8O29,C2
2361,0.027531711,"['Co', 'Li', 'O', 'Sn']",mp-1177466,4,Li4Co3Sn5O16,Cm
2362,0.027568028,"['Li', 'Mn', 'O']",mp-1100535,3,Li9Mn7O16,P-1
2363,0.027570069,"['Li', 'Mn', 'O', 'P']",mp-1177698,4,Li3Mn2(P2O7)2,P1
2364,0.027591975,"['Li', 'O', 'V']",mp-1176805,3,Li8VO6,R-3
2365,0.027596089,"['Cr', 'Li', 'O', 'P']",mp-540260,4,Li2Cr(PO3)4,C2/c
2366,0.02759666,"['Li', 'Mg', 'O', 'W']",mp-776850,4,Li2Mg2(WO4)3,Pc
2367,0.027598356,"['Li', 'V', 'O']",mp-776204,3,LiV3O4,Cmmm
2368,0.02760797,"['B', 'Li', 'Mn', 'O']",mp-853270,4,Li5Mn6(BO3)6,P1
2369,0.027621158,"['Ge', 'Li', 'O', 'Zn']",mp-772979,4,Li3Zn3(Ge3O8)2,P2_1
2370,0.027626345,"['Fe', 'Li', 'O', 'V']",mp-776874,4,Li2V3(FeO6)2,Pbcn
2371,0.027627805,"['Li', 'O', 'Ti']",mp-756294,3,Li2Ti2O5,Ccc2
2372,0.027640327,"['Li', 'Mn', 'O', 'P']",mp-765245,4,Li7Mn4(PO4)6,P1
2373,0.02764153,"['Li', 'Ni', 'O', 'P']",mp-504134,4,LiNi3P3O11,P2_1/c
2374,0.027643893,"['Li', 'O', 'Ta']",mp-770469,3,Li5TaO5,C2/c
2375,0.027646806,"['Li', 'Mn', 'O']",mp-780711,3,Li4Mn3O8,R32
2376,0.027648287,"['Cr', 'Li', 'O', 'V']",mp-1177800,4,Li2VCr3O8,R-3m
2377,0.027656245,"['B', 'Li', 'Mn', 'O']",mp-851014,4,Li5Mn6(BO3)6,P1
2378,0.027675139,"['Li', 'Co', 'Sn', 'O']",mp-776996,4,Li2CoSnO4,I-4m2
2379,0.027704682,"['Li', 'Mn', 'Ni', 'O']",mp-762749,4,Li6MnNi7O16,P-1
2380,0.027712762,"['Fe', 'Li', 'O', 'P']",mp-762707,4,Li3Fe(PO4)2,Pc
2381,0.027733175,"['Cr', 'Li', 'O', 'Sn']",mp-773182,4,Li4Cr3Sn5O16,Cm
2382,0.02776667,"['Li', 'Mn', 'O']",mp-1175325,3,Li7Mn5O12,P-1
2383,0.027776287,"['Li', 'Mn', 'O', 'P']",mp-761616,4,LiMnPO5,P2_1/c
2384,0.027784597,"['Cr', 'Li', 'Mn', 'O']",mp-771116,4,Li3Mn4CrO8,C2/m
2385,0.027799967,"['Li', 'Mo', 'O']",mp-694855,3,Li2MoO3,P-1
2386,0.027803936,"['Cr', 'K', 'Li', 'O']",mp-782640,4,K8Li3Cr4O16,P1
2387,0.027861012,"['Cr', 'Li', 'O', 'P']",mp-768047,4,Li3Cr4(PO4)6,P1
2388,0.027879942,"['Fe', 'Li', 'O', 'P']",mp-773718,4,Li4Fe2(PO4)3,P-1
2389,0.027887898,"['Li', 'O', 'P', 'V']",mp-1176875,4,Li9V3P8O29,P1
2390,0.027898577,"['Li', 'Mn', 'O', 'Sn']",mp-775040,4,Li2MnSnO4,I-4m2
2391,0.027906516,"['B', 'Fe', 'Li', 'O']",mp-761291,4,Li3FeB4O9,P2_1/m
2392,0.027907842,"['Fe', 'Li', 'Mn', 'O']",mp-765929,4,Li5Mn5(FeO6)2,C2
2393,0.027908227,"['Li', 'Mo', 'O', 'Sm']",mp-1211145,4,LiSm(MoO4)2,P2/c
2394,0.02793477,"['B', 'Li', 'Mn', 'O']",mp-850242,4,Li5Mn6(BO3)6,P1
2395,0.027944867,"['Co', 'Li', 'Mn', 'O']",mp-1174038,4,Li5Mn(CoO4)2,P1
2396,0.027968888,"['Ba', 'Li', 'O', 'Ru']",mp-1214370,4,BaLiRu5O11,P6_3/mmc
2397,0.027981401,"['Cr', 'Li', 'O', 'P']",mp-540459,4,LiCr4(PO4)3,P-1
2398,0.027984851,"['Li', 'Mn', 'O']",mp-705765,3,Li3Mn8O16,Pmmn
2399,0.027985496,"['Li', 'O', 'P', 'V']",mp-1101513,4,LiV4P7O24,P-1
2400,0.027986307,"['Li', 'O', 'Ta']",mp-772938,3,Li2Ta4O11,R-3c
2401,0.027997996,"['Cr', 'Li', 'O', 'P']",mp-1101597,4,LiCrP2O7,P2_1/m
2402,0.028028311,"['Cr', 'Li', 'O', 'Sn']",mp-770200,4,Li2Cr3SnO8,R-3m
2403,0.028062438,"['Co', 'Li', 'O', 'P']",mp-769426,4,LiCo2(PO4)2,Pc
2404,0.028093159,"['Co', 'Li', 'Mn', 'O']",mp-1174173,4,Li4Mn3CoO8,P2/m
2405,0.028105571,"['Co', 'Li', 'Mn', 'O']",mp-1175198,4,Li7Mn4CoO12,P1
2406,0.028118761,"['Co', 'Li', 'Mn', 'O']",mp-1174279,4,Li4Mn3CoO8,P-1
2407,0.028153759,"['Li', 'O', 'V']",mp-771530,3,LiV3O8,Pm
2408,0.028173996,"['B', 'Li', 'Mn', 'O']",mp-782820,4,Li5Mn6(BO3)6,P1
2409,0.028183739,"['Co', 'Li', 'O', 'P']",mp-31603,4,LiCo(PO3)4,Cc
2410,0.028185254,"['Cu', 'Fe', 'Li', 'O']",mp-773288,4,Li3Fe2CuO6,C2/m