,e_above_hull,elements,material_id,nelements,pretty_formula,spacegroup.symbol
1255,0.012303139,"['Co', 'Li', 'Ni', 'O']",mp-761738,4,Li2Co3NiO8,R-3m
1256,0.012310479,"['Li', 'Na', 'O', 'V']",mp-775682,4,Na9Li7V16O48,C2
1257,0.012315615,"['Li', 'O', 'P', 'Ti']",mp-774579,4,LiTi2(PO4)3,P-1
1258,0.012330431,"['Cr', 'Li', 'O', 'Ti']",mp-1177760,4,Li32Ti11Cr5O48,C2
1259,0.012337342,"['Li', 'Mn', 'O']",mp-1016165,3,LiMn8O16,Pc
1260,0.012343037,"['Li', 'Mn', 'O', 'Si']",mp-861609,4,Li2Mn4Si4O13,P-1
1261,0.01234737,"['Co', 'Li', 'O']",mp-853206,3,Li3(CoO2)4,R-3m
1262,0.012369998,"['Li', 'Mn', 'Fe', 'O']",mp-775105,4,Li2MnFeO4,I-4m2
1263,0.012377052,"['Fe', 'Li', 'O', 'Si']",mp-762566,4,Li2FeSiO4,C222_1
1264,0.012400512,"['Cr', 'Li', 'Mn', 'O']",mp-1177331,4,Li4MnCrO6,C2
1265,0.012403457,"['B', 'Li', 'O', 'Y']",mp-555489,4,LiY6B3O14,P2_1/c
1266,0.012433858,"['Li', 'Mn', 'O']",mp-1175314,3,Li7Mn5O12,P-1
1267,0.012439302,"['Cr', 'Li', 'O', 'P']",mp-1013922,4,LiCr2P2O9,Pnma
1268,0.012439669,"['Co', 'Li', 'O', 'Sn']",mp-762214,4,Li2Co3SnO8,P4_332
1269,0.012485301,"['Cr', 'Li', 'O', 'Ti']",mp-771285,4,Li24Ti7Cr5O36,P1
1270,0.012531995,"['Co', 'Li', 'Mn', 'O']",mp-775651,4,Li2Mn3CoO8,R-3m
1271,0.012538392,"['Co', 'Li', 'Ni', 'O']",mp-769553,4,Li5Co2Ni3O10,P2/m
1272,0.012547634,"['Li', 'Ni', 'O']",mp-771725,3,LiNi3O4,Cmmm
1273,0.012565638,"['Ca', 'Li', 'Nb', 'O']",mp-773078,4,Li7Ca8Nb12O40,P1
1274,0.012572795,"['Fe', 'Li', 'O', 'Si']",mp-762639,4,LiFeSiO4,Pc
1275,0.012581892,"['Cr', 'Li', 'O', 'Ti']",mp-771282,4,Li24Ti7Cr5O36,P1
1276,0.012596482,"['Li', 'Mn', 'O']",mp-698600,3,Li11Mn13O32,C2/m
1277,0.012604691,"['Co', 'Cr', 'Li', 'O']",mp-761831,4,Li3Cr(CoO3)2,C2/m
1278,0.012616017,"['Li', 'O', 'Ti']",mp-1190132,3,Li2Ti3O7,P2_1/m
1279,0.01261955,"['Li', 'Mn', 'O']",mp-764764,3,Li7Mn5O12,C2/m
1280,0.012626039,"['Li', 'Ni', 'O', 'Sn']",mp-763044,4,Li2NiSnO4,Imma
1281,0.01264146,"['Cr', 'Li', 'Mn', 'O']",mp-770172,4,Li4MnCrO6,P1
1282,0.012658787,"['Co', 'Li', 'O', 'Si']",mp-763485,4,Li2CoSiO4,Pnma
1283,0.012669946,"['Li', 'O', 'P', 'V']",mp-849421,4,LiV2(PO4)3,P2_1/c
1284,0.012681,"['Li', 'O', 'P', 'V']",mp-1177543,4,Li3V4(PO4)6,P1
1285,0.012708004,"['Li', 'Ni', 'O']",mp-1045574,3,Li3(NiO2)4,C2/m
1286,0.0127324,"['B', 'Cs', 'Li', 'O']",mp-966802,4,Cs2Li3(BO2)5,C222_1
1287,0.012736771,"['B', 'Cu', 'Li', 'O']",mp-1191302,4,Li6Cu(B2O5)2,P-1
1288,0.012765425,"['C', 'Li', 'Mn', 'O']",mp-769558,4,LiMn(CO3)2,R-3
1289,0.012772724,"['Co', 'Fe', 'Li', 'O']",mp-761592,4,Li3Fe2CoO6,C2/m
1290,0.012779496,"['Co', 'Fe', 'Li', 'O']",mp-765504,4,Li8Fe3Co5O16,P2/m
1291,0.012855389,"['Cr', 'Li', 'O', 'Ti']",mp-771367,4,Li24Ti7Cr5O36,P1
1292,0.012856799,"['Fe', 'Li', 'O', 'P']",mp-761484,4,LiFePO4,Pca2_1
1293,0.012868892,"['Li', 'Mn', 'O']",mp-770534,3,Li2Mn3O7,P-1
1294,0.012900363,"['Li', 'O', 'P', 'V']",mp-1176852,4,Li7V3P8O29,P1
1295,0.012902977,"['Cr', 'Li', 'O', 'V']",mp-769652,4,Li2VCrO4,C2/m
1296,0.012914537,"['Li', 'Mn', 'O', 'Ti']",mp-778500,4,Li5TiMn9O20,P1
1297,0.012973886,"['Co', 'Fe', 'Li', 'O']",mp-1222513,4,Li3Fe2CoO6,C2/m
1298,0.01299529,"['Cr', 'Li', 'O', 'Ti']",mp-771283,4,Li24Ti7Cr5O36,P1
1299,0.01303036,"['Li', 'O', 'P', 'V']",mp-1176864,4,Li7V3P8O29,P1
1300,0.013056168,"['Co', 'Li', 'O']",mp-1174246,3,Li7Co5O12,P-1
1301,0.013062121,"['Li', 'Mg', 'O', 'Ti']",mp-1095705,4,LiMg30TiO32,P4/mmm
1302,0.0130668,"['Li', 'Mn', 'O', 'P']",mp-540161,4,LiMn(PO3)4,C2/c
1303,0.01307521,"['Li', 'Mo', 'O', 'P']",mp-32107,4,Li3Mo2(PO4)3,C2/c
1304,0.013082402,"['Co', 'Li', 'O']",mp-780888,3,Li(CoO2)4,R-3m
1305,0.013102198,"['Fe', 'Ir', 'Li', 'O']",mp-1222691,4,Li5Fe2(IrO5)2,C2
1306,0.013113883,"['Li', 'Ni', 'O']",mp-771980,3,Li3Ni5O8,R-3m
1307,0.013160988,"['Fe', 'Li', 'O']",mp-768075,3,Li5Fe11O16,P2_1/c
1308,0.013169399,"['Li', 'O', 'Ti', 'Zn']",mp-773081,4,Li3Ti6Zn3O16,P2_1
1309,0.013170786,"['Li', 'O', 'P', 'V']",mp-761774,4,Li8V3P8O29,C2
1310,0.013192296,"['Cr', 'Li', 'O', 'Ti']",mp-771213,4,Li4TiCrO6,P1
1311,0.013197244,"['Co', 'Li', 'O', 'Sb']",mp-850266,4,Li3Co4SbO8,C2/m
1312,0.013206976,"['Fe', 'Li', 'O', 'Si']",mp-863851,4,LiFeSiO4,Pnma
1313,0.013210914,"['Al', 'Cr', 'Li', 'O']",mp-861573,4,Li3Al2CrO6,C2/m
1314,0.013220872,"['Cr', 'Li', 'O', 'V']",mp-768054,4,Li4V3CrO8,P-1
1315,0.013229035,"['B', 'Fe', 'Li', 'O']",mp-765267,4,Li3Fe(BO3)2,P1
1316,0.013241085,"['Cr', 'Li', 'Mn', 'O']",mp-770302,4,Li24Mn5Cr7O36,P1
1317,0.013282492,"['Li', 'Mo', 'O', 'P']",mp-1012668,4,LiMo2P2O9,Pnma
1318,0.013298869,"['Cr', 'Li', 'Mn', 'O']",mp-779388,4,Li24Mn5Cr7O36,P1
1319,0.013303646,"['Li', 'Ni', 'O', 'Sn']",mp-771450,4,Li5Ni3(SnO5)2,P-1
1320,0.013309133,"['Li', 'O', 'Si', 'V']",mp-766923,4,LiVSiO4,Pnma
1321,0.013319382,"['Li', 'O', 'P', 'V']",mp-850007,4,Li7V16(PO4)24,P1
1322,0.013322837,"['Li', 'Ni', 'O', 'Sn']",mp-775035,4,Li2NiSnO4,P2/m
1323,0.01332924,"['Fe', 'Li', 'O', 'Si']",mp-761735,4,Li2Fe2Si4O11,P-1
1324,0.013331637,"['Li', 'Mn', 'O']",mp-699179,3,Li7Mn17O32,C2
1325,0.013340012,"['Li', 'Mo', 'O']",mp-562247,3,Li4Mo5O17,P-1
1326,0.013368679,"['Li', 'O', 'P', 'V']",mp-1013878,4,LiV3P3O13,P2_1/m
1327,0.013404402,"['Cr', 'Li', 'Mn', 'O']",mp-1177618,4,Li3MnCr3O8,R-3m
1328,0.013421546,"['Li', 'Nb', 'O', 'Zn']",mp-768142,4,Li13Nb14ZnO42,P1
1329,0.013443596,"['Li', 'O', 'Si', 'V']",mp-761443,4,Li2V2Si4O11,P-1
1330,0.013448515,"['Al', 'Li', 'O', 'Si']",mp-1222444,4,LiAlSiO4,P6_222
1331,0.013472492,"['Li', 'Ni', 'O']",mp-690572,3,Li5(NiO2)6,P1
1332,0.013473084,"['Li', 'O', 'P', 'Ti']",mp-559441,4,LiTiPO5,P-1
1333,0.013481023,"['K', 'Li', 'O']",mp-559612,3,KLiO,Cmce
1334,0.01348123,"['Ge', 'Li', 'O', 'Zn']",mp-768947,4,Li10Zn3(GeO4)4,P1
1335,0.01351308,"['B', 'Li', 'O', 'P']",mp-1020022,4,Li3B(PO4)2,P-1
1336,0.013520971,"['Co', 'Li', 'O', 'P']",mp-540132,4,Li2CoP2O7,C2/c
1337,0.01352609,"['B', 'Li', 'Mn', 'O']",mp-768040,4,Li11Mn12(BO3)12,P1
1338,0.0135509,"['Li', 'Ni', 'O', 'P']",mp-540171,4,Li2Ni(PO3)4,Pnma
1339,0.013573458,"['Cu', 'Li', 'O', 'P']",mp-757306,4,LiCu(PO3)4,Cc
1340,0.013600079,"['Li', 'Nd', 'O', 'Zr']",mp-1198740,4,Li7Nd3Zr2O12,I4_1/acd
1341,0.01360599,"['Li', 'O', 'P', 'V']",mp-1176972,4,Li7V3P8O29,P1
1342,0.013617786,"['Cr', 'Li', 'Mn', 'O']",mp-770301,4,Li24Mn5Cr7O36,P1
1343,0.013638205,"['Cr', 'Li', 'Mn', 'O']",mp-770313,4,Li24Mn5Cr7O36,P1
1344,0.013638768,"['Cr', 'Li', 'Mn', 'O']",mp-770308,4,Li24Mn5Cr7O36,P1
1345,0.013649145,"['Li', 'Na', 'O', 'Ru']",mp-1201246,4,NaLi2(RuO2)6,P-1
1346,0.013655749,"['B', 'Li', 'Mn', 'O']",mp-1178107,4,Li11Mn12(BO3)12,P1
1347,0.013677193,"['Fe', 'Li', 'O']",mp-773577,3,Li8Fe2O9,P-1
1348,0.013692598,"['Cu', 'Li', 'O', 'W']",mp-566061,4,Li2Cu(WO4)2,P-1
1349,0.013709852,"['Co', 'Li', 'Ni', 'O']",mp-1222736,4,Li5Co(Ni2O5)2,C2/m
1350,0.013714019,"['Fe', 'Li', 'O']",mp-771617,3,Li7Fe5O12,C2
1351,0.013726859,"['B', 'Cu', 'Li', 'O']",mp-1198701,4,Li6Cu(B2O5)2,P-1
1352,0.013763146,"['Co', 'Li', 'O', 'P']",mp-31579,4,Li3Co(PO4)2,P2_1
1353,0.013764931,"['Li', 'O', 'P', 'V']",mp-617172,4,Li2VPO6,Pna2_1
1354,0.013776104,"['Cr', 'Li', 'Mn', 'O']",mp-770259,4,Li24Mn5Cr7O36,P1
1355,0.013785767,"['Li', 'Mn', 'O', 'P']",mp-781184,4,Li2Mn7(P2O7)4,C222_1
1356,0.01381801,"['Cr', 'Li', 'Ni', 'O']",mp-769902,4,Li4Cr3NiO8,R-3m
1357,0.0138233,"['Li', 'Mo', 'O']",mp-698569,3,Li21Mo11O32,C2/m
1358,0.01384543,"['Ba', 'Li', 'O', 'Ti']",mp-767384,4,Ba2LiTi11O24,P1
1359,0.013882388,"['Co', 'Li', 'O', 'Si']",mp-764958,4,Li2CoSiO4,P2_1
1360,0.013906607,"['Cr', 'Li', 'Mn', 'O']",mp-770321,4,Li2Mn3CrO8,R-3m
1361,0.013907816,"['Li', 'O', 'Ta']",mp-559908,3,LiTa3O8,Pmmn
1362,0.013930119,"['Cr', 'Cu', 'Li', 'O']",mp-771793,4,Li4Cr3CuO8,R-3m
1363,0.013931567,"['Cr', 'Li', 'O', 'V']",mp-775729,4,Li4V3CrO8,P2/m
1364,0.01393287,"['Cr', 'Li', 'Mn', 'O']",mp-770856,4,Li2MnCrO4,P-1
1365,0.013964996,"['Co', 'Li', 'O', 'P']",mp-767959,4,LiCo2(PO4)2,Pc
1366,0.013967953,"['Cr', 'Li', 'Mn', 'O']",mp-770300,4,Li24Mn5Cr7O36,P1
1367,0.013990696,"['Al', 'Li', 'Mo', 'O']",mp-19209,4,LiAl(MoO4)2,P-1
1368,0.013997742,"['Cr', 'Li', 'O']",mp-770390,3,Li2Cr4O13,P2_1/c
1369,0.014014321,"['Li', 'Mn', 'O', 'Ti']",mp-775166,4,Li2TiMn3O8,P1
1370,0.014017937,"['Li', 'O', 'V']",mp-767856,3,Li5V12O32,Cm
1371,0.014019968,"['Li', 'Mn', 'O', 'P']",mp-31928,4,LiMnP2O7,C2
1372,0.014031459,"['Li', 'O', 'P', 'Sb']",mp-504207,4,LiSb(PO3)4,C2/c
1373,0.014041228,"['B', 'Cs', 'Li', 'O']",mp-1019715,4,CsLi(B3O5)2,I2_12_12_1
1374,0.01404188,"['Fe', 'Li', 'O', 'Sb']",mp-780303,4,Li4Fe3SbO8,C2/m
1375,0.014073653,"['Li', 'Ni', 'O']",mp-767977,3,Li17Ni11O28,P-1
1376,0.014078983,"['Li', 'Ni', 'O', 'Ti']",mp-771224,4,Li5Ti2Ni3O10,P-1
1377,0.014080368,"['Fe', 'Li', 'O', 'P']",mp-773399,4,Li3Fe(PO4)2,P2_1/m
1378,0.014083379,"['Li', 'O', 'V']",mp-1176899,3,Li9V21O40,I-4
1379,0.014098385,"['Li', 'Mn', 'Ni', 'O']",mp-853151,4,Li5Mn(Ni2O5)2,P-1
1380,0.014102833,"['Li', 'Mn', 'O']",mp-765167,3,Li13Mn17O40,C2/m
1381,0.014119918,"['Co', 'Li', 'Ni', 'O']",mp-761777,4,Li2CoNi3O8,R-3m
1382,0.014121219,"['As', 'Li', 'Ni', 'O']",mp-1222345,4,LiNiAsO4,Imma
1383,0.01415055,"['Li', 'O', 'Ti']",mp-760017,3,Li2TiO3,P-1
1384,0.014155788,"['Li', 'O', 'P', 'Ru']",mp-1211129,4,LiP4(RuO7)2,P-1
1385,0.014156906,"['Cr', 'Li', 'Mn', 'O']",mp-770363,4,Li24Mn5Cr7O36,P1
1386,0.014166317,"['Li', 'Mo', 'O', 'P']",mp-585261,4,LiMo4(P2O11)2,P-1
1387,0.014166664,"['Li', 'Mn', 'O', 'P']",mp-861484,4,LiMnPO4,Pna2_1
1388,0.01416782,"['Fe', 'La', 'Li', 'O']",mp-579161,4,Li11La12Fe3O28,P4/mbm
1389,0.014171903,"['Cr', 'Li', 'O']",mp-772434,3,Li4CrO4,Cmcm
1390,0.014174849,"['Cr', 'Li', 'Mn', 'O']",mp-770267,4,Li24Mn5Cr7O36,P1
1391,0.014185975,"['Li', 'Nb', 'O']",mp-530514,3,Li17Nb18O54,P1
1392,0.014221188,"['Li', 'Mn', 'O']",mp-771616,3,Li7Mn5O12,C2
1393,0.01424543,"['Li', 'Nb', 'O', 'P']",mp-684534,4,LiNbP4O13,P1
1394,0.014247631,"['B', 'Cs', 'Li', 'O']",mp-1200805,4,CsLi(B3O5)2,P222_1
1395,0.014258811,"['Li', 'Mg', 'O', 'Ti']",mp-773055,4,Li3Mg3Ti6O16,P2_1
1396,0.014303982,"['Li', 'Mn', 'O']",mp-767904,3,Li9Mn14O32,Cm
1397,0.014338989,"['As', 'Li', 'Mo', 'O']",mp-567052,4,LiMo2AsO9,Pmmn
1398,0.014342489,"['Li', 'O', 'P', 'V']",mp-540182,4,LiVP2O7,C2/c
1399,0.014360291,"['Co', 'Li', 'O', 'P']",mp-778815,4,Li2CoP2O7,P2_1
1400,0.014374638,"['Li', 'O', 'P', 'Sn']",mp-780235,4,LiSn2(PO4)3,P-1
1401,0.01438153,"['Li', 'Mn', 'O']",mp-1176672,3,LiMn3O6,Cc
1402,0.01438796,"['Li', 'Ni', 'O', 'Ti']",mp-763974,4,Li8TiNi7O16,P1
1403,0.014399784,"['Fe', 'Li', 'O', 'V']",mp-773535,4,LiVFeO4,Imma
1404,0.014405696,"['Cr', 'Li', 'O', 'Ti']",mp-771274,4,Li24Ti5Cr7O36,P1
1405,0.014432107,"['Cr', 'Li', 'Ni', 'O']",mp-769719,4,Li4Cr3NiO8,P-1
1406,0.014478594,"['Cr', 'Li', 'O', 'P']",mp-31729,4,Li3Cr2(PO4)3,Cc
1407,0.014512615,"['In', 'Li', 'O']",mp-778877,3,Li5InO4,Pbca
1408,0.014513267,"['B', 'Li', 'Mn', 'O']",mp-767849,4,Li11Mn12(BO3)12,P1
1409,0.014529466,"['Cu', 'La', 'Li', 'O']",mp-21496,4,LiLa4CuO8,Cmmm
1410,0.0145308,"['Li', 'O', 'P', 'V']",mp-1178192,4,Li15V6(P8O29)2,P1
1411,0.014534231,"['Cr', 'Li', 'Mn', 'O']",mp-779799,4,Li24Mn5Cr7O36,P1
1412,0.014548832,"['Li', 'Ni', 'O', 'P']",mp-585297,4,Li2NiP2O7,C2/c
1413,0.014555196,"['Li', 'Mn', 'O', 'Si']",mp-761470,4,Li2Mn2Si5O13,P-1
1414,0.014566028,"['Li', 'Mn', 'O', 'P']",mp-1176940,4,Li7Mn4(P2O7)4,P-1
1415,0.014568907,"['Li', 'Mg', 'O', 'Ti']",mp-758770,4,Li2Mg3Ti6O16,P2_1
1416,0.014586646,"['Li', 'O', 'Si']",mp-27767,3,Li6Si2O7,P-42_1m
1417,0.014614979,"['Fe', 'Li', 'O', 'P']",mp-762628,4,LiFe(PO3)4,Cc
1418,0.014615909,"['Li', 'O', 'P', 'V']",mp-1176860,4,Li7V3P8O29,P1
1419,0.014636673,"['Cr', 'Li', 'O', 'Ti']",mp-771266,4,Li24Ti5Cr7O36,P1
1420,0.014637132,"['Li', 'O', 'P', 'V']",mp-849376,4,LiV2(PO4)3,P-1
1421,0.014637864,"['Li', 'Ni', 'O']",mp-690528,3,Li7(NiO2)8,P-1
1422,0.014641244,"['Cr', 'Li', 'O', 'V']",mp-860461,4,Li2VCrO4,P-1
1423,0.014650112,"['Al', 'K', 'Li', 'O']",mp-1185277,4,K8Li31Al8O32,P1
1424,0.014668239,"['Cr', 'Li', 'O']",mp-772323,3,Li2Cr4O13,P2_1/c
1425,0.014674795,"['Li', 'Ni', 'O', 'Sn']",mp-773441,4,Li5Ni5(SnO6)2,C2
1426,0.014689225,"['Cr', 'Li', 'O', 'Ti']",mp-771354,4,Li24Ti7Cr5O36,P1
1427,0.014692327,"['Cr', 'Li', 'O', 'Ti']",mp-771215,4,Li4TiCrO6,P1
1428,0.014712706,"['Li', 'Mn', 'O', 'V']",mp-775278,4,Li2MnV3O8,P31c
1429,0.014739682,"['B', 'Ce', 'Li', 'O']",mp-1211185,4,Li3Ce2(BO3)3,P2_1/c
1430,0.014742982,"['Co', 'Li', 'O', 'P']",mp-769575,4,Li6Co5(P2O7)4,P-1
1431,0.014763483,"['Li', 'Mn', 'O', 'Si']",mp-780833,4,Li2MnSiO4,C222_1
1432,0.014781645,"['Li', 'O', 'P', 'V']",mp-765489,4,Li9V3P8O29,P1
1433,0.014792485,"['Cr', 'Li', 'O', 'Ti']",mp-771358,4,Li24Ti5Cr7O36,P1
1434,0.014802039,"['Cr', 'Li', 'Ni', 'O']",mp-770031,4,Li4Cr3NiO8,C2/m
1435,0.014804121,"['Cr', 'Li', 'O', 'Ti']",mp-771305,4,Li24Ti5Cr7O36,P1
1436,0.014825113,"['Fe', 'Li', 'Mn', 'O']",mp-775732,4,Li2MnFe3O8,P4_332
1437,0.014828566,"['Li', 'Ni', 'O']",mp-1176588,3,LiNiO2,Cmc2_1
1438,0.01485695,"['Li', 'O', 'Ti', 'V']",mp-764005,4,Li4TiV3O8,C2/m
1439,0.014857476,"['Cr', 'Li', 'Nb', 'O']",mp-774088,4,Li2NbCr3O8,R-3m
1440,0.014889265,"['Li', 'Fe', 'P', 'O']",mp-761474,4,LiFePO4,Pna2_1
1441,0.014941591,"['Cr', 'Li', 'O', 'W']",mp-776187,4,Li4Cr(WO4)3,P2
1442,0.014943495,"['Cr', 'Li', 'O', 'Ti']",mp-771300,4,Li24Ti7Cr5O36,P1
1443,0.014955363,"['Fe', 'Li', 'Mo', 'O']",mp-566781,4,LiFe(MoO4)2,P-1
1444,0.014959938,"['Li', 'Mn', 'O', 'P']",mp-1177028,4,Li7Mn4(P2O7)4,P1
1445,0.014972644,"['Co', 'Li', 'O', 'P']",mp-540203,4,LiCo2P3O10,C2/c
1446,0.014976057,"['Fe', 'Li', 'O', 'P']",mp-18951,4,LiFePO4,Cmcm
1447,0.014976671,"['Li', 'Mn', 'O', 'P']",mp-1177074,4,Li7Mn4(P2O7)4,P1
1448,0.014988381,"['Li', 'O', 'Ti']",mp-685809,3,Li5Ti12O24,P3m1
1449,0.015046109,"['Cr', 'Li', 'O', 'P']",mp-780193,4,LiCr(PO3)3,P2_12_12_1
1450,0.015050782,"['Li', 'Ni', 'O']",mp-761525,3,Li17Ni11O28,P-1
1451,0.015050961,"['Li', 'Na', 'O', 'V']",mp-769511,4,NaLiV2O6,P1
1452,0.015052468,"['H', 'Li', 'O', 'P']",mp-642650,4,LiP(HO)2,C2/m
1453,0.015080544,"['Cr', 'Li', 'O', 'Si']",mp-761645,4,Li2Cr2Si4O11,P-1
1454,0.015083506,"['Li', 'Mn', 'O', 'Si']",mp-761598,4,Li4Mn2Si3O10,C2/c
1455,0.015092936,"['Li', 'O', 'Ti']",mp-1190625,3,Li2Ti6O13,C2/m
1456,0.015103942,"['Li', 'Mo', 'O']",mp-580783,3,Li(MoO3)3,P-1
1457,0.015114982,"['B', 'Fe', 'Li', 'O']",mp-770764,4,Li2Fe(BO2)5,P2_1/c
1458,0.015116303,"['Fe', 'Li', 'O', 'P']",mp-31885,4,Li3Fe2P5O16,P2/c
1459,0.015124863,"['Li', 'Mn', 'Nb', 'O']",mp-771807,4,Li2Mn3NbO8,Cc
1460,0.015150591,"['Co', 'Li', 'Ni', 'O']",mp-765439,4,Li3CoNi3O8,R-3m
1461,0.015162337,"['B', 'Ho', 'Li', 'O']",mp-1211170,4,LiHo6B3O14,P2_1/c
1462,0.015171477,"['Li', 'O', 'Ti']",mp-772108,3,LiTi11O20,P-1
1463,0.015171548,"['Li', 'O', 'Si', 'V']",mp-767720,4,Li2V4Si4O13,P-1
1464,0.015178582,"['Cr', 'Li', 'O', 'Ti']",mp-771273,4,Li24Ti5Cr7O36,P1
1465,0.01518273,"['Li', 'O', 'P', 'V']",mp-540173,4,LiV(PO3)4,C2/c
1466,0.015188486,"['Ge', 'Li', 'O']",mp-28016,3,Li4Ge9O20,C2
1467,0.015192424,"['Li', 'O', 'P', 'V']",mp-1176941,4,Li7V3P8O29,P1
1468,0.015205149,"['Li', 'Mn', 'O', 'P']",mp-781754,4,Li3Mn2(P2O7)2,P1
1469,0.01520608,"['Li', 'O', 'V']",mp-766239,3,Li7V5O12,P-1
1470,0.015218209,"['Fe', 'Li', 'O', 'P']",mp-761469,4,LiFePO4,Pc
1471,0.015223575,"['Fe', 'Li', 'O', 'Si']",mp-762893,4,LiFeSiO4,Cc
1472,0.015252724,"['Cr', 'Li', 'Mn', 'O']",mp-1177991,4,Li32Mn5Cr11O48,P1
1473,0.015274047,"['Cr', 'Li', 'O', 'Ti']",mp-771365,4,Li24Ti5Cr7O36,P1
1474,0.015279153,"['Cr', 'Li', 'O', 'Ti']",mp-771301,4,Li24Ti5Cr7O36,P1
1475,0.015289453,"['Fe', 'Li', 'O', 'Si']",mp-762925,4,LiFeSiO4,Cc
1476,0.015296548,"['Cu', 'Li', 'O', 'P']",mp-26261,4,Li2Cu(PO3)4,C2/c
1477,0.015305382,"['Cr', 'Li', 'Mn', 'O']",mp-779786,4,Li32Mn5Cr11O48,C2
1478,0.015315042,"['In', 'Li', 'Mo', 'O']",mp-619770,4,LiIn(MoO4)2,P2_1/c
1479,0.015322336,"['Fe', 'Li', 'O', 'Sn']",mp-769826,4,Li5Fe3(SnO5)2,P-1
1480,0.015348278,"['Cr', 'Li', 'O', 'Si']",mp-761646,4,Li2Cr2Si5O13,P-1
1481,0.015352493,"['Co', 'Li', 'Ni', 'O']",mp-779959,4,Li3Co2(NiO4)2,P-1
1482,0.015390057,"['Fe', 'Li', 'O', 'P']",mp-705312,4,LiFePO4,Pna2_1
1483,0.015409169,"['Li', 'Ni', 'O', 'V']",mp-769574,4,Li7V6Ni5O24,P-1
1484,0.015443223,"['Li', 'Mo', 'O']",mp-1223324,3,Li2MoO3,P-1
1485,0.015465353,"['Li', 'Mn', 'O']",mp-1100541,3,Li9Mn7O16,P-1
1486,0.015492655,"['Co', 'Li', 'O']",mp-776979,3,Li9(CoO4)2,Pca2_1
1487,0.015495232,"['Co', 'Li', 'O', 'Ru']",mp-1222819,4,Li3CoRuO5,C2/m
1488,0.015510031,"['Li', 'O', 'P', 'Sn']",mp-850532,4,LiSn2(PO4)3,P2_12_12
1489,0.015517482,"['Cr', 'Li', 'O', 'P']",mp-1101604,4,Li2CrP2O7,C2/c
1490,0.015532945,"['Ba', 'Li', 'O', 'Ti']",mp-775484,4,Ba6Li2Ti16O39,C2/m
1491,0.015542208,"['Fe', 'Li', 'O', 'P']",mp-1177031,4,Li7Fe4(P2O7)4,P-1
1492,0.015554773,"['Cr', 'Li', 'O', 'Ti']",mp-771302,4,Li24Ti5Cr7O36,P1
1493,0.015560178,"['Li', 'Mn', 'O']",mp-763655,3,LiMn3O6,P1
1494,0.015572574,"['Li', 'Mn', 'Ni', 'O']",mp-771234,4,Li5Mn2Ni3O10,P-1
1495,0.015575526,"['Li', 'Mn', 'O', 'P']",mp-1176907,4,Li7Mn4(P2O7)4,P2_1
1496,0.015590257,"['Li', 'Al', 'O']",mp-8001,3,LiAlO2,R-3m
1497,0.015600882,"['Li', 'Mn', 'O', 'P']",mp-1176957,4,Li7Mn4(P2O7)4,P1
1498,0.015608123,"['Fe', 'Li', 'Ni', 'O']",mp-771593,4,Li5Fe2Ni5O12,C2
1499,0.015647457,"['Co', 'Li', 'O', 'Sn']",mp-775112,4,Li2CoSnO4,P2/m
1500,0.015647909,"['Li', 'O', 'Ti', 'V']",mp-771862,4,Li2Ti3VO8,R-3m
1501,0.015652682,"['Li', 'Mn', 'O', 'P']",mp-761527,4,LiMnPO4,Cc
1502,0.01566404,"['Cr', 'Li', 'O']",mp-771607,3,Li7Cr5O12,C2/m
1503,0.015713186,"['Fe', 'Li', 'O', 'Sn']",mp-1176813,4,LiFeSnO4,Pmc2_1
1504,0.015718159,"['Cr', 'Ga', 'Li', 'O']",mp-770277,4,Li4Cr3GaO8,P-1
1505,0.015793828,"['Fe', 'Li', 'Mn', 'O']",mp-773283,4,Li2Mn3FeO8,R-3m
1506,0.015798094,"['B', 'Li', 'O', 'V']",mp-1176670,4,LiV5(BO5)2,Pbam
1507,0.015803992,"['Cr', 'Ga', 'Li', 'O']",mp-770306,4,Li4Cr3GaO8,P-1
1508,0.015808986,"['Li', 'O', 'P', 'V']",mp-767872,4,Li3V4(PO4)6,P1
1509,0.015837883,"['Cr', 'Ga', 'Li', 'O']",mp-770241,4,Li4Cr3GaO8,P-1
1510,0.015838344,"['Li', 'Ni', 'O', 'Ti']",mp-772130,4,Li2Ti3NiO8,R-3m
1511,0.015843177,"['Cr', 'Ga', 'Li', 'O']",mp-770236,4,Li4Cr3GaO8,P-1
1512,0.015866929,"['Li', 'O', 'P', 'V']",mp-1176869,4,Li7V3P8O29,P1
1513,0.015866947,"['Li', 'O', 'P', 'Zr']",mp-681439,4,LiZr2(PO4)3,C2
1514,0.015868696,"['Li', 'O', 'Ru', 'Sr']",mp-1218614,4,Sr4Li(RuO4)3,P-1
1515,0.015876381,"['B', 'Co', 'Li', 'O']",mp-769824,4,LiCoBO3,P-6
1516,0.015884367,"['Li', 'Mg', 'Mn', 'O']",mp-771684,4,LiMg2Mn3O8,R3m
1517,0.015920017,"['B', 'Fe', 'Li', 'O']",mp-850450,4,Li7Fe8(BO3)8,P1
1518,0.01592655,"['Li', 'Mn', 'O', 'P']",mp-1101530,4,LiMnP2O7,P2_1/c
1519,0.015935298,"['Li', 'O', 'P', 'V']",mp-761751,4,Li7V3P8O29,P1
1520,0.015960646,"['Li', 'O', 'P', 'V']",mp-763401,4,LiV(PO3)3,P2_12_12_1
1521,0.015960746,"['Cr', 'Ga', 'Li', 'O']",mp-769981,4,Li4Cr3GaO8,P-1
1522,0.015963817,"['Fe', 'Li', 'O']",mp-850183,3,Li3FeO4,I-43m
1523,0.015973417,"['Cr', 'Ga', 'Li', 'O']",mp-770030,4,Li4Cr3GaO8,P2/m
1524,0.015994023,"['Fe', 'Li', 'O', 'Si']",mp-765904,4,Li2FeSiO4,I-42m
1525,0.015996759,"['Li', 'O', 'Ti']",mp-685797,3,Li6Ti9O20,C2/m
1526,0.016004737,"['Cr', 'Ga', 'Li', 'O']",mp-769759,4,Li4Cr3GaO8,C2/m
1527,0.016040375,"['Li', 'Mn', 'O', 'Ti']",mp-771355,4,Li5Ti2Mn8O20,C2/m
1528,0.016041442,"['Li', 'Mn', 'Ni', 'O']",mp-769631,4,Li2Mn3NiO8,R-3m
1529,0.01604532,"['Cr', 'Ga', 'Li', 'O']",mp-770336,4,Li4Cr3GaO8,P-1
1530,0.016046324,"['Li', 'O', 'P', 'Sb']",mp-26341,4,LiSbP2O7,P2_1
1531,0.016047827,"['Cr', 'Li', 'Mn', 'O']",mp-774249,4,Li3MnCr2O6,C2/m
1532,0.01606832,"['Li', 'O', 'Ti', 'V']",mp-771002,4,Li2TiVO4,P-1
1533,0.01606851,"['Fe', 'Li', 'O', 'V']",mp-765701,4,Li4V3FeO8,R-3m
1534,0.016083034,"['Li', 'Nb', 'O']",mp-530846,3,Li15Nb16O48,R3
1535,0.016086155,"['Li', 'Ni', 'O', 'Sb']",mp-775540,4,Li2Ni3SbO8,R-3m
1536,0.016099962,"['Fe', 'Li', 'O', 'Ti']",mp-1177123,4,Li5Ti2Fe3O10,P1
1537,0.016101706,"['Li', 'Mn', 'O', 'P']",mp-1176910,4,Li7Mn4(P2O7)4,P1
1538,0.016104177,"['Li', 'Mn', 'O', 'P']",mp-761601,4,Li2Mn(PO4)2,Pbca
1539,0.016105753,"['Co', 'Li', 'O']",mp-1172980,3,Li17(CoO4)3,P1
1540,0.016112368,"['Li', 'Nb', 'O', 'Sr']",mp-561294,4,SrLi2Nb2O7,I4/mmm
1541,0.016161516,"['Li', 'O', 'P', 'V']",mp-762630,4,LiV2(PO4)3,P1