,e_above_hull,elements,material_id,nelements,pretty_formula,spacegroup.symbol
3285,0.038527508,"['B', 'Li', 'Mn', 'O']",mp-849353,4,Li3Mn4(BO3)4,P-1
3286,0.038529657,"['Li', 'O', 'V']",mp-765490,3,LiV24O58,P1
3287,0.038554249,"['Co', 'Li', 'O', 'P']",mp-775012,4,Li3Co2(PO4)3,R-3
3288,0.038576395,"['Li', 'Mn', 'O', 'P']",mp-782650,4,LiMnP2O7,P2_1/c
3289,0.038583993,"['B', 'Li', 'Mn', 'O']",mp-853214,4,Li3Mn4(BO3)4,P-1
3290,0.038595782,"['Cu', 'Li', 'O']",mp-753845,3,LiCuO2,P1
3291,0.038630337,"['Li', 'O', 'P', 'W']",mp-777465,4,Li3P3(WO6)2,R-3
3292,0.038632439,"['Co', 'Li', 'Mn', 'O']",mp-1174885,4,Li7Mn4CoO12,P1
3293,0.038641429,"['Fe', 'Li', 'Nb', 'O']",mp-769502,4,Li4Nb2Fe3O10,P-1
3294,0.038647824,"['B', 'Li', 'Mn', 'O']",mp-850072,4,Li3Mn4(BO3)4,P-1
3295,0.038653592,"['Cr', 'Li', 'O', 'V']",mp-778301,4,Li4V3Cr5O16,Cm
3296,0.038658892,"['Li', 'O', 'Sb']",mp-756951,3,LiSbO3,C2/m
3297,0.03866228,"['Li', 'O', 'P', 'V']",mp-762897,4,Li2V(PO4)2,P2_1/c
3298,0.038682745,"['Li', 'Mn', 'O', 'P']",mp-690452,4,LiMn4(PO4)3,P-1
3299,0.03869357,"['Li', 'Ni', 'O', 'Sn']",mp-775605,4,Li2Ni2SnO6,Cmce
3300,0.03870345,"['Li', 'O', 'P', 'V']",mp-865197,4,Li3V3P8O29,Cc
3301,0.038713833,"['Co', 'Li', 'Mn', 'O']",mp-1174238,4,Li4Mn3CoO8,P-1
3302,0.038737286,"['Fe', 'Li', 'O', 'P']",mp-762674,4,LiFe4(PO4)3,P-1
3303,0.038748931,"['Li', 'Mn', 'O']",mp-706830,3,Li7Mn11O24,C2/m
3304,0.038760677,"['Cr', 'Li', 'O', 'P']",mp-504389,4,Li7Cr4P9O32,P-42_1c
3305,0.038767845,"['Li', 'Mn', 'O', 'W']",mp-772369,4,Li2Mn3WO8,P6_3mc
3306,0.038796731,"['B', 'Li', 'Mn', 'O']",mp-780136,4,Li3Mn4(BO3)4,P1
3307,0.038812187,"['Li', 'O', 'P', 'V']",mp-765080,4,Li5V3P8O29,P1
3308,0.038828086,"['Li', 'O', 'P', 'V']",mp-585383,4,Li2V(PO4)2,Cc
3309,0.03884969,"['Li', 'Mn', 'O']",mp-769666,3,Li5Mn6O12,P-1
3310,0.038858744,"['Li', 'O', 'P', 'V']",mp-32507,4,LiV(PO3)4,P2_1
3311,0.038858822,"['Li', 'Mn', 'O']",mp-1174373,3,Li4Mn3O7,C2/m
3312,0.038864586,"['Fe', 'Li', 'O', 'P']",mp-1177017,4,Li6Fe3P8O29,Cc
3313,0.038878198,"['Li', 'Nb', 'O']",mp-686041,3,Li7Nb8O24,P1
3314,0.038878396,"['Fe', 'Li', 'O', 'P']",mp-762887,4,LiFe4(PO4)3,Pm
3315,0.03888744,"['Li', 'Ni', 'O']",mp-762513,3,Li7(NiO2)12,C2
3316,0.038900278,"['Li', 'O', 'P', 'W']",mp-763474,4,LiPWO5,C2/c
3317,0.038904579,"['Co', 'Li', 'Mn', 'O']",mp-1174187,4,Li4Mn3CoO8,P2/m
3318,0.038907952,"['Li', 'Ni', 'O', 'Si']",mp-767916,4,Li2SiNiO4,P2_1/c
3319,0.038920793,"['La', 'Li', 'O', 'Sr']",mp-753769,4,Sr3Li3La5O12,Pm
3320,0.0389567,"['Li', 'Ni', 'O', 'P']",mp-767985,4,Li2NiP2O7,P-1
3321,0.038970057,"['Li', 'Mg', 'O', 'Sb']",mp-1040012,4,LiMg30SbO32,P4/mmm
3322,0.038982214,"['Cu', 'Li', 'O', 'V']",mp-772122,4,Li3V4CuO12,C2
3323,0.039057697,"['B', 'Li', 'Mn', 'O']",mp-853209,4,Li3Mn4(BO3)4,P1
3324,0.039075323,"['Li', 'O', 'P', 'Sn']",mp-673092,4,Li4Sn(PO3)6,P1
3325,0.039097008,"['Li', 'Mn', 'O']",mp-770510,3,Li5MnO4,Pbca
3326,0.039098401,"['Li', 'Mn', 'O', 'P']",mp-1177902,4,Li2MnP2O7,P-1
3327,0.039112028,"['Fe', 'Li', 'Na', 'O']",mp-771278,4,Na8Li9(FeO4)4,P1
3328,0.039117207,"['B', 'Li', 'Ni', 'O']",mp-770786,4,Li3Ni(BO3)2,P2_1/c
3329,0.039134716,"['Li', 'O', 'V']",mp-774369,3,Li3V12O29,Cm
3330,0.039138026,"['Li', 'Mn', 'O']",mp-1175347,3,Li7Mn5O12,C2/m
3331,0.039162467,"['Al', 'Fe', 'Li', 'O']",mp-770577,4,LiAlFeO3,P-1
3332,0.039186608,"['Co', 'Ge', 'Li', 'O']",mp-774275,4,Li3Co3(Ge3O8)2,P2_1
3333,0.039217477,"['Li', 'O', 'P', 'Sn']",mp-761841,4,Li2SnP2O7,P2_1/c
3334,0.039231098,"['Cu', 'Li', 'O', 'P']",mp-25943,4,Li2CuP2O7,P2_1/c
3335,0.039243341,"['B', 'Li', 'Mn', 'O']",mp-849373,4,Li3Mn4(BO3)4,P-1
3336,0.039272895,"['Li', 'O', 'P', 'V']",mp-763379,4,LiV(PO3)3,Pbcm
3337,0.039304066,"['Co', 'Li', 'O', 'P']",mp-31594,4,LiCoPO4,Pc
3338,0.039304295,"['Co', 'Li', 'Mn', 'O']",mp-1175239,4,Li7Mn4CoO12,P1
3339,0.039312915,"['Fe', 'Li', 'O', 'P']",mp-540433,4,Li2Fe3(P2O7)2,P-1
3340,0.039313395,"['Cr', 'Li', 'O', 'Si']",mp-775349,4,Li2Cr(Si2O5)3,P-62c
3341,0.039326206,"['Li', 'O', 'P', 'W']",mp-763452,4,LiP3W2O13,P2_1/c
3342,0.039333023,"['Ga', 'Li', 'O', 'V']",mp-772233,4,Li4VGa3O8,P1
3343,0.039353891,"['Cu', 'Li', 'O', 'P']",mp-25871,4,Li3Cu2P5O16,P2/c
3344,0.039370104,"['Cr', 'Li', 'O', 'P']",mp-540423,4,LiCr(PO3)4,P2_1
3345,0.039374998,"['Li', 'Mn', 'O', 'P']",mp-777038,4,LiMnPO4,Pnma
3346,0.03938027,"['Li', 'Mn', 'O', 'P']",mp-761610,4,LiMnPO5,P-1
3347,0.039384314,"['Li', 'Ni', 'O']",mp-705910,3,Li15(NiO2)14,Cm
3348,0.039400806,"['Li', 'Mn', 'O', 'Sn']",mp-773253,4,Li2MnSnO4,P2/m
3349,0.039409283,"['Co', 'Li', 'Mn', 'O']",mp-1174214,4,Li4Mn3CoO8,P-1
3350,0.039411729,"['Cu', 'Li', 'O', 'Sb']",mp-1222546,4,LiCuSbO4,P2_1
3351,0.03942758,"['B', 'Li', 'O', 'Y']",mp-1211286,4,Li3Y2(BO3)3,P2_1/c
3352,0.039439919,"['Cu', 'Li', 'Ni', 'O']",mp-780809,4,Li3Cu(NiO3)2,C2/m
3353,0.039465062,"['Li', 'Mn', 'O']",mp-772345,3,Li4Mn3O8,R-3m
3354,0.039482161,"['Co', 'Li', 'Mn', 'O']",mp-1174165,4,Li4Mn3CoO8,P2/m
3355,0.039497878,"['Cr', 'Li', 'O', 'P']",mp-1177554,4,Li4Cr2(PO4)3,P2_1/c
3356,0.039505273,"['Li', 'Mn', 'O', 'Ti']",mp-771552,4,Li5Ti2Mn5O12,C2
3357,0.039511105,"['Co', 'Li', 'Mn', 'O']",mp-1174185,4,Li4Mn3CoO8,C2/m
3358,0.039528066,"['Co', 'Li', 'O']",mp-1173894,3,Li2CoO3,C2/m
3359,0.039602723,"['Cr', 'Li', 'O', 'P']",mp-781504,4,Li2CrP2O7,P2_1/c
3360,0.039617892,"['Li', 'Mg', 'O', 'Sb']",mp-1040035,4,LiMg30SbO32,P4/mmm
3361,0.039651266,"['Li', 'O', 'P', 'V']",mp-853850,4,Li4V3P8O29,Cc
3362,0.039691461,"['Fe', 'Li', 'O', 'P']",mp-1177652,4,Li3Fe5(PO4)6,C2/c
3363,0.039692289,"['Li', 'Mn', 'O']",mp-1175362,3,Li7Mn5O12,C2/m
3364,0.03969492,"['Li', 'Mn', 'O', 'P']",mp-31931,4,LiMn4(PO4)3,R3c
3365,0.039696136,"['B', 'Li', 'Mn', 'O']",mp-849347,4,Li3Mn4(BO3)4,P-1
3366,0.039698535,"['Li', 'O', 'P', 'Sn']",mp-684509,4,LiSn(PO3)3,P2_12_12_1
3367,0.039700859,"['Fe', 'Li', 'O', 'Ti']",mp-1177243,4,Li4TiFe3O8,P1
3368,0.039705522,"['Li', 'Mn', 'Ni', 'O']",mp-868126,4,Li3Mn(NiO3)2,C2/c
3369,0.039710791,"['Li', 'O', 'P', 'Ti']",mp-26409,4,LiTi(PO3)4,C2/c
3370,0.039734305,"['Li', 'Mn', 'O']",mp-1100509,3,Li9Mn7O16,P-1
3371,0.03974797,"['Fe', 'Li', 'O']",mp-761358,3,Li4FeO3,Cc
3372,0.039758676,"['Co', 'Li', 'Mn', 'O']",mp-1174136,4,Li4Mn3CoO8,C2/m
3373,0.039762802,"['Co', 'Li', 'Ni', 'O']",mp-775263,4,Li6CoNi9O20,C2/m
3374,0.039786499,"['Li', 'Mn', 'O']",mp-1175326,3,Li7Mn5O12,P-1
3375,0.039829337,"['Co', 'Li', 'O']",mp-1173977,3,Li3Co2O5,P-1
3376,0.039830766,"['B', 'Fe', 'Li', 'O']",mp-850252,4,Li5Fe8(BO3)8,P1
3377,0.039847814,"['Li', 'Mn', 'O']",mp-690435,3,Li7Mn11O24,C2
3378,0.0398555,"['Li', 'O', 'Si', 'V']",mp-853175,4,Li4V2Si4O13,Pna2_1
3379,0.039864614,"['Li', 'Mn', 'O']",mp-1174283,3,Li4Mn3O7,P-1
3380,0.039867946,"['Fe', 'Li', 'Mn', 'O']",mp-770175,4,Li2Mn3FeO8,P6_3mc
3381,0.039890353,"['Li', 'Mn', 'Ni', 'O']",mp-762589,4,Li4Mn5(NiO6)2,P2_1
3382,0.039900499,"['Li', 'O', 'Ti']",mp-766548,3,Li4Ti11O24,P1
3383,0.039904109,"['Co', 'Li', 'Mg', 'O']",mp-769527,4,Li2MgCo13O28,P-1
3384,0.039908866,"['Ba', 'Li', 'O', 'W']",mp-773964,4,Ba10LiW7O30,P3m1
3385,0.039932788,"['B', 'Fe', 'Li', 'O']",mp-850449,4,Li5Fe8(BO3)8,P1
3386,0.039947542,"['Li', 'Mn', 'O']",mp-771942,3,Li3Mn5O8,R-3m
3387,0.039948664,"['B', 'Fe', 'Li', 'O']",mp-777707,4,Li5Fe8(BO3)8,P1
3388,0.039959586,"['Fe', 'Li', 'O', 'P']",mp-31846,4,LiFePO4,Pc
3389,0.039963334,"['Li', 'Mn', 'O', 'P']",mp-540421,4,Li2MnP2O7,P-1
3390,0.039965894,"['Li', 'O', 'P', 'W']",mp-763539,4,LiP3W2O13,P2_1/c
3391,0.039975327,"['Li', 'O', 'V']",mp-775458,3,LiV18O44,Pm
3392,0.039977673,"['B', 'Li', 'O', 'V']",mp-769715,4,LiVBO4,Pnma
3393,0.039981467,"['Li', 'O', 'P', 'V']",mp-865189,4,Li3V3P8O29,P1
3394,0.039992991,"['Li', 'Ni', 'O', 'P']",mp-1176606,4,LiNi(PO3)4,C2/c
3395,0.040001364,"['Li', 'O', 'P', 'V']",mp-1176584,4,LiV(PO3)3,P-1
3396,0.040006944,"['Fe', 'Li', 'Ni', 'O']",mp-774135,4,LiFeNiO4,Imma
3397,0.040013804,"['Li', 'Mn', 'O', 'Ti']",mp-777417,4,Li4Ti5Mn3O16,Cm
3398,0.040015629,"['Fe', 'Li', 'O', 'P']",mp-775523,4,Li3Fe2(PO4)3,C2
3399,0.040033177,"['Li', 'Mn', 'O', 'Si']",mp-761776,4,LiMn(SiO3)2,Pbca
3400,0.040056905,"['Li', 'Mn', 'O', 'P']",mp-504397,4,LiMn4(PO4)3,Pnnm
3401,0.040058123,"['Al', 'Li', 'O', 'V']",mp-770414,4,LiAlVO4,P4_322
3402,0.040061042,"['Co', 'Li', 'Mn', 'O']",mp-1175245,4,Li7Mn4CoO12,P1
3403,0.040062993,"['Li', 'O', 'P', 'V']",mp-1101503,4,LiV(PO3)4,P2_1
3404,0.040070398,"['B', 'Li', 'Mn', 'O']",mp-849258,4,Li3Mn4(BO3)4,P-1
3405,0.040086082,"['Fe', 'Li', 'O', 'Si']",mp-762643,4,LiFeSiO4,Cmcm
3406,0.040101841,"['Cu', 'H', 'Li', 'O']",mp-769763,4,Li5Cu(HO2)2,Pnma
3407,0.04011052,"['Li', 'Mn', 'O', 'Si']",mp-859137,4,Li2Mn2Si2O7,Ama2
3408,0.040121241,"['Co', 'Cu', 'Li', 'O']",mp-761730,4,LiCo3CuO8,C2/m
3409,0.040126,"['Fe', 'Li', 'O', 'Si']",mp-773691,4,LiFe(SiO3)2,P1
3410,0.04014645,"['Li', 'Mn', 'O']",mp-1100502,3,Li9Mn7O16,P-1
3411,0.040164848,"['Li', 'O', 'W']",mp-706504,3,Li2W2O7,P-1
3412,0.040165678,"['Li', 'Mn', 'O', 'Si']",mp-853204,4,Li2MnSiO4,P2_1/c
3413,0.040168645,"['Cu', 'Li', 'Mn', 'O']",mp-849420,4,Li2Mn3CuO8,R3m
3414,0.040185228,"['Eu', 'Li', 'O']",mp-1098010,3,Li2Eu5O8,C2/m
3415,0.040204763,"['Li', 'Mo', 'O', 'Sb']",mp-1191914,4,LiSb(MoO4)2,C2/c
3416,0.040215164,"['Gd', 'Li', 'O']",mp-754204,3,LiGdO2,I4_1/amd
3417,0.040216329,"['Li', 'Ni', 'O', 'Si']",mp-767648,4,Li2SiNiO4,Pna2_1
3418,0.040224862,"['Li', 'Mn', 'O']",mp-34461,3,Li7Mn11O24,P-1
3419,0.040235282,"['B', 'Fe', 'Li', 'O']",mp-767682,4,Li4Fe3(BO3)4,Pc
3420,0.040246861,"['Li', 'O', 'Si', 'Ti']",mp-757419,4,LiTi(SiO3)2,Pbca
3421,0.040248203,"['Fe', 'Li', 'Mn', 'O']",mp-771896,4,Li5Mn8Fe11O32,Cm
3422,0.040287187,"['Co', 'Li', 'O', 'V']",mp-771711,4,Li4V3CoO8,C2/m
3423,0.040300618,"['Fe', 'Li', 'O', 'P']",mp-767831,4,LiFe2(PO4)2,Pca2_1
3424,0.04031412,"['Li', 'Mn', 'O', 'Ti']",mp-773545,4,Li4Ti3Mn5O16,Cm
3425,0.040340486,"['Li', 'O', 'P', 'V']",mp-863866,4,Li3V3P8O29,Cc
3426,0.040360149,"['Cu', 'Li', 'O', 'P']",mp-26795,4,LiCu5P3O13,P-1
3427,0.040362573,"['Li', 'O', 'Ti', 'V']",mp-775345,4,LiTi2VO6,P2_1/c
3428,0.040364167,"['Li', 'Ni', 'O', 'Ti']",mp-763686,4,Li6TiNi7O16,P1
3429,0.040370675,"['Fe', 'Li', 'O', 'P']",mp-540520,4,Li7Fe4P9O32,P-42_1c
3430,0.040403595,"['Co', 'Li', 'O']",mp-769852,3,Li3CoO3,P-1
3431,0.040403725,"['Li', 'O', 'Si', 'V']",mp-761778,4,Li2V2Si5O13,P-1
3432,0.040408382,"['Li', 'O', 'Sn', 'V']",mp-1177815,4,Li2V3SnO8,R-3m
3433,0.040412773,"['B', 'Li', 'O', 'Sb']",mp-770402,4,Li3B2SbO6,P-1
3434,0.040414931,"['Fe', 'Li', 'O', 'W']",mp-775493,4,Li2Fe3WO8,C2
3435,0.040424954,"['C', 'Co', 'Li', 'O']",mp-767064,4,Li3Co2(CO3)4,P1
3436,0.040433763,"['Cr', 'Li', 'O', 'V']",mp-771618,4,Li5V3Cr2O10,P-1
3437,0.040448038,"['Li', 'Mn', 'O']",mp-1100500,3,Li9Mn7O16,C2/m
3438,0.040455936,"['Li', 'Mo', 'O', 'P']",mp-704183,4,LiMo2PO8,P2_1
3439,0.040471669,"['Fe', 'Li', 'O', 'P']",mp-762490,4,LiFeP2O7,P2_1/c
3440,0.040477421,"['Fe', 'Li', 'O', 'P']",mp-31873,4,LiFe(PO3)4,P2_12_12_1
3441,0.040485327,"['Li', 'O', 'Ti']",mp-776170,3,LiTi2O4,P6_3mc
3442,0.040489673,"['Li', 'Mo', 'O', 'P']",mp-32106,4,LiMoPO5,Pnma
3443,0.040498002,"['Li', 'Cr', 'O']",mp-762454,3,LiCrO2,I4_1/amd
3444,0.040513189,"['Li', 'Mn', 'O', 'P']",mp-762759,4,LiMn(PO3)3,P-1
3445,0.040584914,"['Li', 'O', 'Ti']",mp-1185486,3,LiTi2O4,P2/m
3446,0.040605598,"['Fe', 'Li', 'O', 'P']",mp-762839,4,LiFe4(PO4)3,Pnma
3447,0.040606685,"['Co', 'Li', 'Mn', 'O']",mp-1175194,4,Li7Mn4CoO12,P1
3448,0.040617313,"['Li', 'O', 'P', 'Sn']",mp-26897,4,LiSn(PO3)3,P-6c2
3449,0.04065398,"['Li', 'O', 'P', 'V']",mp-1176562,4,LiV2(PO4)2,Pmc2_1
3450,0.040680365,"['Li', 'Mn', 'O', 'P']",mp-764125,4,Li4Mn2(PO4)3,P-1
3451,0.04068413,"['Li', 'Mn', 'O']",mp-1100491,3,Li9Mn7O16,C2/m
3452,0.040686103,"['Ce', 'Li', 'Mg', 'O']",mp-1040143,4,LiCeMg30O32,P4/mmm
3453,0.040688954,"['Co', 'Ge', 'Li', 'O']",mp-777152,4,Li3Co2(GeO4)2,P1
3454,0.040692318,"['B', 'Li', 'Mn', 'O']",mp-776720,4,Li3Mn4(BO3)4,P1
3455,0.040705548,"['Li', 'Mn', 'O']",mp-772021,3,LiMnO2,P-1
3456,0.040720401,"['Fe', 'Li', 'O', 'Ti']",mp-778277,4,Li2Ti3FeO8,P6_3mc
3457,0.040743255,"['Li', 'O', 'P', 'V']",mp-766667,4,Li4V3P8O29,Cc
3458,0.040746449,"['Co', 'Li', 'Mn', 'O']",mp-1175246,4,Li7Mn4CoO12,P1
3459,0.040753041,"['Li', 'O', 'P', 'V']",mp-1177634,4,Li3V3P8O29,P1
3460,0.040774194,"['B', 'Fe', 'Li', 'O']",mp-764548,4,Li5Fe8(BO3)8,P1
3461,0.040790733,"['Fe', 'Li', 'O', 'Si']",mp-997543,4,Li3FeSi2O7,P6_3
3462,0.040804737,"['Li', 'Na', 'O', 'Ti']",mp-761849,4,Na5Li3Ti5O14,P1
3463,0.040807504,"['Cr', 'Fe', 'Li', 'O']",mp-777653,4,Li2Cr3FeO8,P1
3464,0.040826762,"['B', 'Li', 'Mn', 'O']",mp-850018,4,Li3Mn4(BO3)4,P-1
3465,0.04084592,"['Fe', 'Li', 'O', 'P']",mp-849492,4,Li5Fe4(P2O7)4,P1
3466,0.040858059,"['C', 'Li', 'O', 'V']",mp-767565,4,LiVCO4,P2_1/c
3467,0.040862604,"['Fe', 'Li', 'O', 'Si']",mp-1176688,4,LiFeSiO4,Pbcn
3468,0.040871093,"['Cr', 'Li', 'O', 'P']",mp-762949,4,Li14Cr9(P2O7)8,P-1
3469,0.040872677,"['Li', 'Mn', 'O']",mp-1174326,3,Li4Mn3O7,P-1
3470,0.040879793,"['Fe', 'Li', 'Nb', 'O']",mp-770958,4,Li4NbFe3O8,C2/m
3471,0.040941457,"['Cr', 'Li', 'O', 'P']",mp-697664,4,LiCr4(PO4)3,C2/c
3472,0.040948563,"['Co', 'Li', 'Mn', 'O']",mp-1174770,4,Li6Mn3CoO10,P1
3473,0.040952956,"['B', 'Li', 'Mn', 'O']",mp-780194,4,Li3Mn4(BO3)4,P-1
3474,0.040970862,"['Li', 'O', 'P', 'V']",mp-1177489,4,Li3V3P8O29,C2
3475,0.040996767,"['B', 'Li', 'Mn', 'O']",mp-780105,4,Li3Mn4(BO3)4,P1
3476,0.04100022,"['Li', 'O', 'P', 'V']",mp-32525,4,Li2V(PO4)2,P2_1/c
3477,0.04100471,"['Li', 'Mn', 'O', 'P']",mp-504387,4,Li6Mn5(P2O7)4,P-1
3478,0.041024489,"['B', 'Fe', 'Li', 'O']",mp-764619,4,Li5Fe8(BO3)8,P1
3479,0.041035286,"['Li', 'Mn', 'O']",mp-1174316,3,Li4Mn3O7,P-1
3480,0.041041481,"['Co', 'Li', 'Mn', 'O']",mp-1174203,4,Li4Mn3CoO8,C2/m
3481,0.041051548,"['Co', 'Cr', 'Li', 'O']",mp-769711,4,Li3Cr3CoO8,P-1
3482,0.041061831,"['Li', 'O', 'Si', 'V']",mp-767492,4,Li2V2Si2O9,Pbcn
3483,0.041079897,"['Co', 'Cr', 'Li', 'O']",mp-766809,4,Li3Cr2CoO6,C2/m
3484,0.041081394,"['Co', 'Li', 'O']",mp-1173880,3,Li2CoO3,C2/m
3485,0.041083283,"['Al', 'Li', 'O', 'Si']",mp-542874,4,LiAl(SiO3)2,P2_1/c
3486,0.041084595,"['Fe', 'Li', 'O', 'P']",mp-767228,4,LiFe2(PO4)2,C2
3487,0.041108253,"['Fe', 'Li', 'O', 'W']",mp-772249,4,Li4Fe3WO8,R-3m
3488,0.041112281,"['Fe', 'Li', 'O']",mp-773719,3,LiFe23O32,R-3m
3489,0.041112948,"['Li', 'O', 'Rb', 'Tb']",mp-556675,4,Rb2Li14Tb3O14,Immm
3490,0.041121057,"['B', 'Fe', 'Li', 'O']",mp-764654,4,Li5Fe8(BO3)8,P1
3491,0.041129661,"['Fe', 'Li', 'O', 'Zn']",mp-771780,4,Li3Zn(Fe5O8)4,Cm
3492,0.041170515,"['Li', 'Mn', 'O', 'P']",mp-778041,4,Li9Mn7(PO4)12,P1
3493,0.041184869,"['Co', 'Fe', 'Li', 'O']",mp-764865,4,Li8FeCo9O20,P-1
3494,0.041188248,"['Al', 'Li', 'Mn', 'O']",mp-772241,4,Li3MnAl2O6,P-1
3495,0.041193366,"['Fe', 'Li', 'O']",mp-586092,3,Li3Fe5O8,Cmcm
3496,0.041216051,"['Cr', 'Fe', 'Li', 'O']",mp-780020,4,Li3Cr3FeO8,C2/m
3497,0.041232289,"['B', 'Fe', 'Li', 'O']",mp-764854,4,Li5Fe8(BO3)8,P1
3498,0.041236018,"['Ga', 'Li', 'O', 'V']",mp-770981,4,Li2VGaO4,P-1
3499,0.041253927,"['Fe', 'Li', 'O', 'Si']",mp-766664,4,LiFeSiO4,Pna2_1
3500,0.041262994,"['Li', 'O', 'V']",mp-773325,3,Li2V3O8,P2_12_12_1
3501,0.041263895,"['Cr', 'Li', 'O', 'Si']",mp-762876,4,Li3Cr(Si2O5)3,Cmce
3502,0.041264801,"['Cr', 'Li', 'O', 'P']",mp-775294,4,LiCr3P4O15,Pc
3503,0.041272676,"['Li', 'O', 'Si', 'V']",mp-761583,4,Li3V(Si2O5)3,Pnma
3504,0.041314228,"['Fe', 'Li', 'Ni', 'O']",mp-767980,4,Li3Fe3NiO8,C2/m
3505,0.041315323,"['Li', 'Mn', 'O', 'Si']",mp-767360,4,LiMn(SiO3)2,C2/c
3506,0.041327171,"['Li', 'Mn', 'O']",mp-761797,3,Li6Mn15O32,P-1
3507,0.041352651,"['Li', 'Mn', 'O', 'P']",mp-540045,4,Li2Mn(PO3)4,P4/nbm
3508,0.041370205,"['Li', 'Mn', 'O']",mp-1175323,3,Li7Mn5O12,P-1
3509,0.041376673,"['Li', 'Mn', 'O']",mp-1175318,3,Li7Mn5O12,P-1
3510,0.041380041,"['Co', 'Li', 'O', 'Ti']",mp-1177850,4,Li2TiCoO4,Imma
3511,0.04139367,"['Fe', 'Li', 'Nb', 'O']",mp-771984,4,Li3Nb4FeO12,P1
3512,0.041411749,"['Co', 'Li', 'O']",mp-1173889,3,Li2CoO3,C2/m
3513,0.041436962,"['Li', 'O', 'P', 'V']",mp-865196,4,Li3V3P8O29,P1
3514,0.041440139,"['Co', 'Li', 'O', 'Ti']",mp-773179,4,Li2TiCo3O8,Cc
3515,0.041494199,"['Li', 'Mn', 'O']",mp-1175359,3,Li7Mn5O12,C2/m
3516,0.041501132,"['Li', 'O', 'P', 'V']",mp-504399,4,Li7V4P9O32,P-42_1c
3517,0.041523682,"['Cr', 'Li', 'O', 'P']",mp-540457,4,Li4CrP2O9,C2/m
3518,0.041524218,"['Li', 'Mn', 'O']",mp-1175365,3,Li7Mn5O12,C2/m
3519,0.041537809,"['Li', 'Nb', 'O']",mp-531722,3,Li5Nb6O18,P1
3520,0.041546868,"['Li', 'O', 'P', 'V']",mp-766731,4,Li3V3P8O29,Cc
3521,0.041549045,"['Li', 'O', 'Ti']",mp-760378,3,LiTi2O4,Pmc2_1
3522,0.041554795,"['Li', 'O', 'P', 'Sn']",mp-26855,4,Li2Sn(PO3)4,P4/nbm
3523,0.041580916,"['Co', 'Li', 'Mn', 'O']",mp-1174375,4,Li5Mn2CoO8,P1
3524,0.04158334,"['Co', 'Li', 'Mn', 'O']",mp-1175266,4,Li7Mn4CoO12,C2
3525,0.041592577,"['Ge', 'Li', 'O', 'Si']",mp-1222533,4,Li4SiGe3O10,P1
3526,0.041626172,"['Cr', 'Li', 'Mn', 'O']",mp-780214,4,Li4Mn3Cr3O12,P2/m
3527,0.04162831,"['Li', 'Mn', 'O', 'P']",mp-705069,4,LiMnPO4,P2_1/c
3528,0.041638565,"['Li', 'Mn', 'O']",mp-1175335,3,Li7Mn5O12,P-1
3529,0.041645081,"['Li', 'Mn', 'O']",mp-764763,3,Li7Mn4O12,P1
3530,0.041687234,"['Li', 'O', 'P', 'V']",mp-540455,4,Li3V2(PO4)3,C2/c
3531,0.041707229,"['C', 'Li', 'O', 'V']",mp-1176541,4,LiVCO4,Pnma
3532,0.0417346,"['Co', 'Cr', 'Li', 'O']",mp-1178130,4,Li2CrCo3O8,R32
3533,0.041738043,"['Co', 'Li', 'Mn', 'O']",mp-765529,4,Li2MnCoO4,P2/m
3534,0.041750802,"['Co', 'Li', 'O', 'V']",mp-1177869,4,Li2V3CoO8,P2_13
3535,0.041767935,"['Fe', 'Li', 'O', 'P']",mp-762543,4,LiFe4(PO4)3,I-42d
3536,0.041777275,"['Li', 'O', 'P', 'V']",mp-1177216,4,Li4V3P8O29,P1
3537,0.041777326,"['Cr', 'Li', 'O', 'P']",mp-777696,4,LiCrP2O7,P2_1/c
3538,0.041786396,"['Fe', 'K', 'Li', 'O']",mp-771795,4,KLi4FeO5,P-1
3539,0.041791993,"['Cr', 'Li', 'O', 'P']",mp-779171,4,LiCr(PO3)3,P-1
3540,0.0418052,"['Li', 'Mn', 'O', 'Sn']",mp-773184,4,Li2MnSnO4,Imma
3541,0.041841534,"['Co', 'Li', 'Mn', 'O']",mp-1174811,4,Li6Mn3CoO10,C2
3542,0.041857715,"['Li', 'Mn', 'O', 'V']",mp-1177922,4,Li2Mn3VO8,P2_12_12_1
3543,0.041857984,"['Fe', 'Li', 'O']",mp-31768,3,LiFe5O8,P4_332
3544,0.041873692,"['Li', 'O', 'P', 'V']",mp-766663,4,Li4V3P8O29,P1
3545,0.041877875,"['Co', 'Li', 'Mn', 'O']",mp-761633,4,Li3Mn(CoO3)2,C2/m
3546,0.041895945,"['Fe', 'Li', 'O', 'P']",mp-1013899,4,LiFe3P3O13,P2_1/m
3547,0.041896103,"['Li', 'Mn', 'O']",mp-1100498,3,Li9Mn7O16,C2/m
3548,0.041904029,"['Ce', 'Li', 'Mg', 'O']",mp-1040156,4,LiCeMg30O32,P4/mmm
3549,0.041910301,"['Fe', 'Li', 'O', 'P']",mp-1176752,4,LiFe4(PO4)3,Pnnm
3550,0.041927903,"['Li', 'Mn', 'Ni', 'O']",mp-771720,4,Li3Mn2NiO6,C2/m
3551,0.041952333,"['Co', 'Li', 'Mn', 'O']",mp-1174382,4,Li5Mn2CoO8,P1
3552,0.041966513,"['B', 'Li', 'O', 'V']",mp-770155,4,Li3V3(BO5)2,P2_1
3553,0.041970367,"['Fe', 'Li', 'O', 'Ti']",mp-769653,4,Li2TiFe2O5,P1
3554,0.041975926,"['Co', 'Li', 'Mn', 'O']",mp-1173956,4,Li3Mn2CoO6,P-1
3555,0.041979175,"['Li', 'Mn', 'O']",mp-1100490,3,Li9Mn7O16,C2/m
3556,0.041997481,"['Co', 'Li', 'Mn', 'O']",mp-1174216,4,Li4Mn3CoO8,P-1
3557,0.042000531,"['Al', 'Fe', 'Li', 'O']",mp-1177725,4,Li3Al(FeO3)2,P-1
3558,0.042003377,"['Li', 'Ni', 'O', 'Ti']",mp-774353,4,Li3Ti(NiO3)2,C2/m
3559,0.042005058,"['Li', 'Ni', 'O']",mp-763296,3,Li12Ni11O28,P1
3560,0.042014202,"['Fe', 'Li', 'O', 'P']",mp-1101596,4,Li2FeP2O7,C2/c
3561,0.042019742,"['Cr', 'Li', 'Ni', 'O']",mp-772329,4,Li2Cr3NiO8,R-3m
3562,0.042033024,"['B', 'Fe', 'Li', 'O']",mp-764891,4,Li5Fe8(BO3)8,P1
3563,0.042039099,"['Li', 'O', 'P', 'W']",mp-763498,4,LiP2WO7,C2
3564,0.042069396,"['Cu', 'Li', 'O', 'P']",mp-26741,4,LiCu4(PO4)3,C2/c
3565,0.042069971,"['B', 'Fe', 'Li', 'O']",mp-764554,4,Li5Fe8(BO3)8,P1
3566,0.042071865,"['Fe', 'Li', 'O', 'Sn']",mp-1177407,4,Li4Fe5Sn3O16,Cm
3567,0.042104964,"['Cr', 'Li', 'O', 'P']",mp-773417,4,Li4Cr3P4O15,Pna2_1
3568,0.042113275,"['Li', 'Mn', 'O', 'Ti']",mp-764078,4,Li4TiMn3O8,P1
3569,0.042122895,"['Li', 'O', 'P', 'W']",mp-763370,4,LiP2WO8,P2_1/c
3570,0.042124172,"['Co', 'Li', 'Mn', 'O']",mp-1173950,4,Li3Mn2CoO6,P-1
3571,0.042137111,"['Li', 'Ni', 'O']",mp-1177872,3,Li2Ni5O9,P1
3572,0.042139257,"['Li', 'Mn', 'O']",mp-1100476,3,Li9Mn7O16,P2/m
3573,0.042141516,"['C', 'Li', 'Mn', 'O']",mp-764236,4,Li2MnCO5,Pbam